REMARK SMILES Cc1ccc(NS(=O)(=O)c2ccc(C(=O)N3CC(C)OC(C)C3)cc2)cc1
REMARK SMILES IDX 14 1 15 2 16 3 13 4 10 5 11 6 25 7 12 8 24 9 7 10 8 11 9 12
REMARK SMILES IDX 6 13 5 15 2 16 3 17 27 18 4 19 26 20 1 21 17 22 18 23 19 24
REMARK SMILES IDX 20 25 21 26 22 27 23 29
REMARK H PARENT 6 14
REMARK Flexibility Score:   92.900
ROOT
ATOM      1  C   UNL     1      -1.941  -1.301  -1.103  1.00  0.00     0.254 C 
ATOM      2  O   UNL     1      -1.707  -2.109  -2.032  1.00  0.00    -0.269 OA
ATOM      3  N   UNL     1      -3.284  -0.998  -0.669  1.00  0.00    -0.333 N 
ENDROOT
BRANCH   1   4
ATOM      4  C   UNL     1      -0.853  -0.597  -0.381  1.00  0.00     0.040 A 
ATOM      5  C   UNL     1       1.075   0.620   1.124  1.00  0.00     0.087 A 
ATOM      6  C   UNL     1       0.903   0.976  -0.188  1.00  0.00     0.023 A 
ATOM      7  C   UNL     1       0.254  -0.376   1.682  1.00  0.00     0.023 A 
ATOM      8  C   UNL     1      -0.079   0.366  -0.981  1.00  0.00     0.015 A 
ATOM      9  C   UNL     1      -0.706  -0.986   0.944  1.00  0.00     0.015 A 
BRANCH   5  10
ATOM     10  S   UNL     1       2.229   1.333   2.214  1.00  0.00     0.261 S 
ATOM     11  O   UNL     1       1.649   1.349   3.634  1.00  0.00    -0.201 OA
ATOM     12  O   UNL     1       2.424   2.766   1.767  1.00  0.00    -0.201 OA
BRANCH  10  13
ATOM     13  N   UNL     1       3.729   0.536   2.200  1.00  0.00    -0.280 N 
ATOM     14  H   UNL     1       4.030   0.089   3.137  1.00  0.00     0.180 HD
BRANCH  13  15
ATOM     15  C   UNL     1       4.638   0.371   1.156  1.00  0.00     0.049 A 
ATOM     16  C   UNL     1       6.721   0.133  -0.749  1.00  0.00    -0.051 A 
ATOM     17  C   UNL     1       6.996   0.544   0.555  1.00  0.00     0.005 A 
ATOM     18  C   UNL     1       5.411  -0.149  -1.069  1.00  0.00     0.005 A 
ATOM     19  C   UNL     1       5.980   0.653   1.459  1.00  0.00     0.027 A 
ATOM     20  C   UNL     1       4.389  -0.030  -0.126  1.00  0.00     0.027 A 
ATOM     21  C   UNL     1       7.827   0.009  -1.735  1.00  0.00     0.044 C 
ENDBRANCH  13  15
ENDBRANCH  10  13
ENDBRANCH   5  10
ENDBRANCH   1   4
BRANCH   3  22
ATOM     22  C   UNL     1      -4.403  -1.656  -1.319  1.00  0.00     0.151 C 
BRANCH  22  23
ATOM     23  C   UNL     1      -5.464  -0.616  -1.573  1.00  0.00     0.135 C 
ATOM     24  C   UNL     1      -6.739  -1.409  -1.895  1.00  0.00     0.040 C 
BRANCH  23  25
ATOM     25  O   UNL     1      -5.750   0.083  -0.417  1.00  0.00    -0.372 OA
BRANCH  25  26
ATOM     26  C   UNL     1      -4.703   0.814   0.080  1.00  0.00     0.135 CG0
ATOM     27  C   UNL     1      -5.146   1.475   1.370  1.00  0.00     0.040 C 
ATOM     28  G   UNL     1      -3.497  -0.042   0.410  1.00  0.00     0.000 G0
ENDBRANCH  25  26
ENDBRANCH  23  25
ENDBRANCH  22  23
ENDBRANCH   3  22
BRANCH   3  29
ATOM     29  C   UNL     1      -3.497  -0.042   0.410  1.00  0.00     0.151 CG0
ATOM     30  G   UNL     1      -4.703   0.814   0.080  1.00  0.00     0.000 G0
ENDBRANCH   3  29
TORSDOF 4
