REMARK SMILES CSc1ccccc1C(=O)N1CCOC(CCN(C)C)C1
REMARK SMILES IDX 21 1 11 2 9 3 10 4 8 5 3 6 4 7 5 8 7 9 6 10 2 11 1 12 12 13
REMARK SMILES IDX 15 15 14 16 13 17 16 19 17 20 18 21 19 22 20 23
REMARK H PARENT
REMARK Flexibility Score:   48.900
ROOT
ATOM      1  C   UNL     1       0.377   0.420  -0.914  1.00  0.00     0.152 C 
ENDROOT
BRANCH   1   2
ATOM      2  N   UNL     1      -0.878  -0.065  -0.373  1.00  0.00    -0.334 N 
BRANCH   2   3
ATOM      3  C   UNL     1      -1.839  -0.596  -1.276  1.00  0.00     0.255 C 
ATOM      4  O   UNL     1      -1.614  -0.648  -2.534  1.00  0.00    -0.269 OA
BRANCH   3   5
ATOM      5  C   UNL     1      -3.132  -1.115  -0.853  1.00  0.00     0.053 A 
ATOM      6  C   UNL     1      -4.264  -0.322  -0.761  1.00  0.00     0.020 A 
ATOM      7  C   UNL     1      -5.439  -0.913  -0.350  1.00  0.00     0.016 A 
ATOM      8  C   UNL     1      -5.496  -2.273  -0.034  1.00  0.00     0.001 A 
ATOM      9  C   UNL     1      -3.190  -2.465  -0.538  1.00  0.00     0.015 A 
ATOM     10  C   UNL     1      -4.360  -3.055  -0.129  1.00  0.00     0.001 A 
BRANCH   6  11
ATOM     11  S   UNL     1      -4.141   1.413  -1.177  1.00  0.00    -0.129 SA
ATOM     12  C   UNL     1      -3.721   2.441   0.244  1.00  0.00     0.091 C 
ENDBRANCH   6  11
ENDBRANCH   3   5
ENDBRANCH   2   3
BRANCH   2  13
ATOM     13  C   UNL     1      -1.099   0.010   1.064  1.00  0.00     0.148 CG0
ATOM     14  G   UNL     1      -0.196   1.084   1.601  1.00  0.00     0.000 G0
ENDBRANCH   2  13
ENDBRANCH   1   2
BRANCH   1  15
ATOM     15  C   UNL     1       1.412   0.159   0.188  1.00  0.00     0.139 C 
BRANCH  15  16
ATOM     16  O   UNL     1       1.110   1.020   1.222  1.00  0.00    -0.374 OA
BRANCH  16  17
ATOM     17  C   UNL     1      -0.196   1.084   1.601  1.00  0.00     0.182 CG0
ATOM     18  G   UNL     1      -1.099   0.010   1.064  1.00  0.00     0.000 G0
ENDBRANCH  16  17
ENDBRANCH  15  16
BRANCH  15  19
ATOM     19  C   UNL     1       2.805   0.292  -0.311  1.00  0.00     0.049 C 
BRANCH  19  20
ATOM     20  C   UNL     1       3.733  -0.012   0.861  1.00  0.00     0.086 C 
BRANCH  20  21
ATOM     21  N   UNL     1       5.129   0.089   0.481  1.00  0.00    -0.309 NA
ATOM     22  C   UNL     1       5.403   1.487   0.211  1.00  0.00     0.104 C 
ATOM     23  C   UNL     1       5.398  -0.700  -0.703  1.00  0.00     0.104 C 
ENDBRANCH  20  21
ENDBRANCH  19  20
ENDBRANCH  15  19
ENDBRANCH   1  15
TORSDOF 6
