REMARK SMILES O=C(/C=C/c1cncc(F)c1-c1cnn(C2CC2)c1)Nc1ccc(CN2CC3CC(C2)O3)cc1
REMARK SMILES IDX 21 1 22 2 23 3 24 4 33 5 34 6 20 7 1 8 2 9 3 11 4 12 5 13
REMARK SMILES IDX 6 14 11 15 7 16 9 17 8 18 10 19 12 20 13 21 19 22 14 23
REMARK SMILES IDX 15 24 16 25 17 26 18 27 25 28 26 29 27 30 28 31 29 32 32 33
REMARK SMILES IDX 30 34 31 36
REMARK H PARENT 20 10
REMARK Flexibility Score:  164.900
ROOT
ATOM      1  C   UNL     1      -1.122   0.668   1.087  1.00  0.00     0.041 A 
ATOM      2  C   UNL     1      -1.828   1.755   0.564  1.00  0.00     0.026 A 
ATOM      3  C   UNL     1      -3.182   1.587   0.321  1.00  0.00     0.007 A 
ATOM      4  C   UNL     1      -3.836   0.388   0.582  1.00  0.00    -0.034 A 
ATOM      5  C   UNL     1      -3.121  -0.672   1.098  1.00  0.00     0.007 A 
ATOM      6  C   UNL     1      -1.756  -0.530   1.352  1.00  0.00     0.026 A 
ENDROOT
BRANCH   1   7
ATOM      7  N   UNL     1       0.267   0.881   1.321  1.00  0.00    -0.323 N 
ATOM      8  O   UNL     1      -0.193   1.597   3.437  1.00  0.00    -0.270 OA
ATOM      9  C   UNL     1       0.721   1.379   2.592  1.00  0.00     0.248 C 
ATOM     10  H   UNL     1       0.927   0.669   0.560  1.00  0.00     0.170 HD
BRANCH   9  11
ATOM     11  C   UNL     1       2.121   1.614   2.887  1.00  0.00     0.072 C 
ATOM     12  C   UNL     1       3.112   1.404   2.044  1.00  0.00     0.016 C 
BRANCH  12  13
ATOM     13  C   UNL     1       4.514   1.645   2.355  1.00  0.00     0.004 A 
ATOM     14  C   UNL     1       4.958   2.118   3.556  1.00  0.00     0.119 A 
ATOM     15  C   UNL     1       5.475   1.386   1.387  1.00  0.00     0.031 A 
ATOM     16  N   UNL     1       6.281   2.332   3.812  1.00  0.00    -0.261 NA
ATOM     17  C   UNL     1       6.829   1.596   1.621  1.00  0.00     0.150 A 
ATOM     18  C   UNL     1       7.212   2.075   2.857  1.00  0.00     0.150 A 
ATOM     19  F   UNL     1       7.740   1.333   0.656  1.00  0.00    -0.205 F 
BRANCH  15  20
ATOM     20  C   UNL     1       5.116   0.878   0.068  1.00  0.00     0.023 A 
ATOM     21  C   UNL     1       4.807   1.565  -1.086  1.00  0.00     0.144 A 
ATOM     22  C   UNL     1       5.038  -0.478  -0.201  1.00  0.00     0.117 A 
ATOM     23  N   UNL     1       4.550   0.611  -2.019  1.00  0.00    -0.181 NA
ATOM     24  N   UNL     1       4.684  -0.594  -1.507  1.00  0.00    -0.269 N 
BRANCH  24  25
ATOM     25  C   UNL     1       4.510  -1.897  -2.129  1.00  0.00     0.107 C 
ATOM     26  C   UNL     1       5.644  -2.417  -2.982  1.00  0.00     0.029 C 
ATOM     27  C   UNL     1       4.340  -1.976  -3.612  1.00  0.00     0.029 C 
ENDBRANCH  24  25
ENDBRANCH  15  20
ENDBRANCH  12  13
ENDBRANCH   9  11
ENDBRANCH   1   7
BRANCH   4  28
ATOM     28  C   UNL     1      -5.284   0.335   0.281  1.00  0.00     0.120 C 
BRANCH  28  29
ATOM     29  N   UNL     1      -5.595  -0.092  -1.045  1.00  0.00    -0.294 NA
BRANCH  29  30
ATOM     30  C   UNL     1      -5.139  -1.396  -1.407  1.00  0.00     0.117 C 
BRANCH  30  31
ATOM     31  C   UNL     1      -6.168  -2.472  -1.133  1.00  0.00     0.135 C 
ATOM     32  C   UNL     1      -7.323  -2.306  -2.108  1.00  0.00     0.066 C 
ATOM     33  O   UNL     1      -7.058  -2.110  -0.124  1.00  0.00    -0.372 OA
ATOM     34  C   UNL     1      -7.713  -1.303  -1.064  1.00  0.00     0.135 CG0
ATOM     35  G   UNL     1      -7.010   0.018  -1.262  1.00  0.00     0.000 G0
ENDBRANCH  30  31
ENDBRANCH  29  30
BRANCH  29  36
ATOM     36  C   UNL     1      -7.010   0.018  -1.262  1.00  0.00     0.117 CG0
ATOM     37  G   UNL     1      -7.713  -1.303  -1.064  1.00  0.00     0.000 G0
ENDBRANCH  29  36
ENDBRANCH  28  29
ENDBRANCH   4  28
TORSDOF 7
