REMARK SMILES CN(CCN1CC2CN(Cc3ccc(F)cc3)CC(C1)O2)S(=O)(=O)c1ccc(C#N)cc1
REMARK SMILES IDX 7 1 6 3 5 4 4 5 3 6 2 7 1 8 22 9 23 10 24 11 25 12 26 13
REMARK SMILES IDX 32 14 27 15 31 16 28 17 29 18 30 19 20 20 21 22 19 23 18 25
REMARK SMILES IDX 9 26 8 27 10 29 11 30 12 31 17 32 13 33 16 34 14 35 15 36
REMARK H PARENT
REMARK Flexibility Score:  414.800
ROOT
ATOM      1  C   UNL     1      -2.453  -2.127   0.188  1.00  0.00     0.146 CG0
ATOM      2  G   UNL     1      -3.234  -0.845   0.352  1.00  0.00     0.000 G0
ENDROOT
BRANCH   1   3
ATOM      3  C   UNL     1      -0.994  -1.889   0.615  1.00  0.00     0.118 C 
BRANCH   3   4
ATOM      4  N   UNL     1      -0.552  -0.763  -0.142  1.00  0.00    -0.297 NA
BRANCH   4   5
ATOM      5  C   UNL     1       0.677  -0.164   0.286  1.00  0.00     0.101 C 
BRANCH   5   6
ATOM      6  C   UNL     1       1.827  -1.073   0.041  1.00  0.00     0.117 C 
BRANCH   6   7
ATOM      7  N   UNL     1       3.099  -0.532   0.461  1.00  0.00    -0.200 NA
ATOM      8  C   UNL     1       3.936  -1.659   0.830  1.00  0.00     0.124 C 
BRANCH   7   9
ATOM      9  S   UNL     1       3.853   0.390  -0.778  1.00  0.00     0.242 S 
ATOM     10  O   UNL     1       2.960   1.573  -1.090  1.00  0.00    -0.207 OA
ATOM     11  O   UNL     1       4.100  -0.405  -2.035  1.00  0.00    -0.207 OA
BRANCH   9  12
ATOM     12  C   UNL     1       5.363   1.037  -0.246  1.00  0.00     0.082 A 
ATOM     13  C   UNL     1       5.413   2.256   0.394  1.00  0.00     0.023 A 
ATOM     14  C   UNL     1       6.530   0.329  -0.466  1.00  0.00     0.023 A 
ATOM     15  C   UNL     1       6.642   2.760   0.812  1.00  0.00     0.021 A 
ATOM     16  C   UNL     1       7.773   0.796  -0.065  1.00  0.00     0.021 A 
ATOM     17  C   UNL     1       7.800   2.025   0.577  1.00  0.00     0.052 A 
ATOM     18  C   UNL     1       9.095   2.507   0.991  1.00  0.00     0.099 C 
ATOM     19  N   UNL     1      10.150   2.901   1.313  1.00  0.00    -0.192 NA
ENDBRANCH   9  12
ENDBRANCH   7   9
ENDBRANCH   6   7
ENDBRANCH   5   6
ENDBRANCH   4   5
BRANCH   4  20
ATOM     20  C   UNL     1      -0.658  -0.924  -1.551  1.00  0.00     0.118 CG1
ATOM     21  G   UNL     1      -1.975  -1.557  -1.941  1.00  0.00     0.000 G1
ENDBRANCH   4  20
ENDBRANCH   3   4
ENDBRANCH   1   3
BRANCH   1  22
ATOM     22  O   UNL     1      -2.390  -2.569  -1.110  1.00  0.00    -0.370 OA
BRANCH  22  23
ATOM     23  C   UNL     1      -1.975  -1.557  -1.941  1.00  0.00     0.146 CG1
ATOM     24  G   UNL     1      -0.658  -0.924  -1.551  1.00  0.00     0.000 G1
BRANCH  23  25
ATOM     25  C   UNL     1      -3.030  -0.491  -2.034  1.00  0.00     0.118 C 
BRANCH  25  26
ATOM     26  N   UNL     1      -3.822  -0.364  -0.854  1.00  0.00    -0.294 NA
BRANCH  26  27
ATOM     27  C   UNL     1      -3.234  -0.845   0.352  1.00  0.00     0.118 CG0
ATOM     28  G   UNL     1      -2.453  -2.127   0.188  1.00  0.00     0.000 G0
ENDBRANCH  26  27
BRANCH  26  29
ATOM     29  C   UNL     1      -4.317   0.981  -0.633  1.00  0.00     0.120 C 
BRANCH  29  30
ATOM     30  C   UNL     1      -5.333   0.928   0.441  1.00  0.00    -0.034 A 
ATOM     31  C   UNL     1      -5.039   1.095   1.776  1.00  0.00     0.008 A 
ATOM     32  C   UNL     1      -6.656   0.692   0.058  1.00  0.00     0.008 A 
ATOM     33  C   UNL     1      -6.055   1.028   2.729  1.00  0.00     0.039 A 
ATOM     34  C   UNL     1      -7.683   0.620   0.976  1.00  0.00     0.039 A 
ATOM     35  C   UNL     1      -7.358   0.791   2.307  1.00  0.00     0.123 A 
ATOM     36  F   UNL     1      -8.325   0.732   3.264  1.00  0.00    -0.207 F 
ENDBRANCH  29  30
ENDBRANCH  26  29
ENDBRANCH  25  26
ENDBRANCH  23  25
ENDBRANCH  22  23
ENDBRANCH   1  22
TORSDOF 7
