REMARK SMILES CCOc1ccc(NS(=O)(=O)c2cc(C(=O)N3CC(C)OC(C)C3)ccc2C)cc1
REMARK SMILES IDX 12 1 13 2 14 3 25 4 26 5 27 6 28 7 9 8 10 9 11 10 8 11 7 13
REMARK SMILES IDX 4 14 5 15 30 16 6 17 29 18 3 19 2 20 1 21 15 22 16 23 17 24
REMARK SMILES IDX 18 25 24 27 22 28 23 29 21 30 19 31 20 32
REMARK H PARENT 8 12
REMARK Flexibility Score:   46.900
ROOT
ATOM      1  C   UNL     1      -0.055  -0.328  -0.968  1.00  0.00     0.091 A 
ATOM      2  C   UNL     1      -1.339   0.077  -1.399  1.00  0.00     0.036 A 
ATOM      3  C   UNL     1      -2.484  -0.542  -0.955  1.00  0.00     0.041 A 
ATOM      4  C   UNL     1      -2.444  -1.611  -0.052  1.00  0.00     0.014 A 
ATOM      5  C   UNL     1      -1.196  -2.007   0.368  1.00  0.00     0.005 A 
ATOM      6  C   UNL     1      -0.044  -1.370  -0.090  1.00  0.00    -0.031 A 
ATOM      7  C   UNL     1       1.240  -1.901   0.422  1.00  0.00     0.046 C 
ENDROOT
BRANCH   1   8
ATOM      8  S   UNL     1       1.282   0.600  -1.519  1.00  0.00     0.262 S 
ATOM      9  O   UNL     1       1.640   1.687  -0.523  1.00  0.00    -0.201 OA
ATOM     10  O   UNL     1       0.815   1.393  -2.757  1.00  0.00    -0.201 OA
BRANCH   8  11
ATOM     11  N   UNL     1       2.657  -0.265  -2.026  1.00  0.00    -0.280 N 
ATOM     12  H   UNL     1       2.499  -0.972  -2.814  1.00  0.00     0.180 HD
BRANCH  11  13
ATOM     13  C   UNL     1       3.962  -0.133  -1.517  1.00  0.00     0.049 A 
ATOM     14  C   UNL     1       6.705   0.079  -0.769  1.00  0.00     0.119 A 
ATOM     15  C   UNL     1       6.311  -0.216  -2.075  1.00  0.00     0.048 A 
ATOM     16  C   UNL     1       5.688   0.264   0.140  1.00  0.00     0.048 A 
ATOM     17  C   UNL     1       5.001  -0.321  -2.448  1.00  0.00     0.030 A 
ATOM     18  C   UNL     1       4.344   0.155  -0.250  1.00  0.00     0.030 A 
BRANCH  14  19
ATOM     19  O   UNL     1       8.033   0.158  -0.533  1.00  0.00    -0.494 OA
BRANCH  19  20
ATOM     20  C   UNL     1       8.769   0.418   0.594  1.00  0.00     0.226 C 
ATOM     21  C   UNL     1       8.625  -0.553   1.736  1.00  0.00     0.049 C 
ENDBRANCH  19  20
ENDBRANCH  14  19
ENDBRANCH  11  13
ENDBRANCH   8  11
ENDBRANCH   1   8
BRANCH   3  22
ATOM     22  C   UNL     1      -3.831  -0.122  -1.358  1.00  0.00     0.254 C 
ATOM     23  O   UNL     1      -4.361  -0.420  -2.442  1.00  0.00    -0.269 OA
ATOM     24  N   UNL     1      -4.538   0.687  -0.397  1.00  0.00    -0.333 N 
BRANCH  24  25
ATOM     25  C   UNL     1      -5.883   1.172  -0.648  1.00  0.00     0.151 CG0
ATOM     26  G   UNL     1      -6.585   1.716   0.531  1.00  0.00     0.000 G0
ENDBRANCH  24  25
BRANCH  24  27
ATOM     27  C   UNL     1      -3.938   1.068   0.870  1.00  0.00     0.151 C 
BRANCH  27  28
ATOM     28  C   UNL     1      -4.971   0.753   1.924  1.00  0.00     0.135 C 
ATOM     29  C   UNL     1      -5.170  -0.736   2.119  1.00  0.00     0.040 C 
BRANCH  28  30
ATOM     30  O   UNL     1      -6.158   1.377   1.773  1.00  0.00    -0.372 OA
BRANCH  30  31
ATOM     31  C   UNL     1      -6.585   1.716   0.531  1.00  0.00     0.135 CG0
ATOM     32  C   UNL     1      -8.045   1.250   0.442  1.00  0.00     0.040 C 
ATOM     33  G   UNL     1      -5.883   1.172  -0.648  1.00  0.00     0.000 G0
ENDBRANCH  30  31
ENDBRANCH  28  30
ENDBRANCH  27  28
ENDBRANCH  24  27
ENDBRANCH   3  22
TORSDOF 6
