REMARK SMILES CC1OC2(CCN(CCc3ccccc3)CC2)CN(Cc2ccccc2)C1=O
REMARK SMILES IDX 17 1 4 2 3 3 2 4 1 5 5 7 18 9 19 10 20 11 21 12 22 13 26 14
REMARK SMILES IDX 23 15 25 16 24 17 27 18 28 19 16 21 7 22 6 23 8 25 9 26
REMARK SMILES IDX 10 27 11 28 15 29 12 30 14 31 13 32
REMARK H PARENT
REMARK Flexibility Score:  124.800
ROOT
ATOM      1  C   UNL     1       0.319  -0.177  -1.291  1.00  0.00     0.053 C 
ENDROOT
BRANCH   1   2
ATOM      2  C   UNL     1      -0.733   0.310  -0.317  1.00  0.00     0.089 C 
BRANCH   2   3
ATOM      3  O   UNL     1      -1.240   1.478  -0.790  1.00  0.00    -0.360 OA
BRANCH   3   4
ATOM      4  C   UNL     1      -2.468   1.902  -0.405  1.00  0.00     0.205 CG0
ATOM      5  C   UNL     1      -3.497   1.648  -1.509  1.00  0.00     0.049 C 
ATOM      6  G   UNL     1      -2.894   1.195   0.839  1.00  0.00     0.000 G0
ENDBRANCH   3   4
ENDBRANCH   2   3
BRANCH   2   7
ATOM      7  C   UNL     1      -0.013   0.617   0.980  1.00  0.00     0.053 CG1
ATOM      8  G   UNL     1       1.471   0.565   0.889  1.00  0.00     0.000 G1
ENDBRANCH   2   7
BRANCH   2   9
ATOM      9  C   UNL     1      -1.715  -0.789  -0.059  1.00  0.00     0.155 C 
BRANCH   9  10
ATOM     10  N   UNL     1      -2.736  -0.240   0.815  1.00  0.00    -0.333 N 
BRANCH  10  11
ATOM     11  C   UNL     1      -3.586  -1.055   1.654  1.00  0.00     0.155 C 
BRANCH  11  12
ATOM     12  C   UNL     1      -4.818  -1.349   0.868  1.00  0.00    -0.029 A 
ATOM     13  C   UNL     1      -4.934  -2.461   0.051  1.00  0.00     0.005 A 
ATOM     14  C   UNL     1      -5.872  -0.455   0.974  1.00  0.00     0.005 A 
ATOM     15  C   UNL     1      -6.126  -2.639  -0.644  1.00  0.00     0.000 A 
ATOM     16  C   UNL     1      -7.062  -0.626   0.287  1.00  0.00     0.000 A 
ATOM     17  C   UNL     1      -7.179  -1.732  -0.527  1.00  0.00     0.000 A 
ENDBRANCH  11  12
ENDBRANCH  10  11
BRANCH  10  18
ATOM     18  C   UNL     1      -2.894   1.195   0.839  1.00  0.00     0.251 CG0
ATOM     19  O   UNL     1      -3.357   1.784   1.844  1.00  0.00    -0.272 OA
ATOM     20  G   UNL     1      -2.468   1.902  -0.405  1.00  0.00     0.000 G0
ENDBRANCH  10  18
ENDBRANCH   9  10
ENDBRANCH   2   9
ENDBRANCH   1   2
BRANCH   1  21
ATOM     21  C   UNL     1       1.266   0.987  -1.475  1.00  0.00     0.087 C 
BRANCH  21  22
ATOM     22  N   UNL     1       2.057   1.124  -0.293  1.00  0.00    -0.303 NA
BRANCH  22  23
ATOM     23  C   UNL     1       1.471   0.565   0.889  1.00  0.00     0.087 CG1
ATOM     24  G   UNL     1      -0.013   0.617   0.980  1.00  0.00     0.000 G1
ENDBRANCH  22  23
BRANCH  22  25
ATOM     25  C   UNL     1       3.378   0.517  -0.532  1.00  0.00     0.089 C 
BRANCH  25  26
ATOM     26  C   UNL     1       4.348   0.951   0.525  1.00  0.00     0.051 C 
BRANCH  26  27
ATOM     27  C   UNL     1       5.706   0.378   0.375  1.00  0.00    -0.047 A 
ATOM     28  C   UNL     1       6.662   1.056  -0.391  1.00  0.00     0.004 A 
ATOM     29  C   UNL     1       6.088  -0.801   0.956  1.00  0.00     0.004 A 
ATOM     30  C   UNL     1       7.918   0.506  -0.518  1.00  0.00     0.000 A 
ATOM     31  C   UNL     1       7.349  -1.343   0.822  1.00  0.00     0.000 A 
ATOM     32  C   UNL     1       8.298  -0.680   0.068  1.00  0.00     0.000 A 
ENDBRANCH  26  27
ENDBRANCH  25  26
ENDBRANCH  22  25
ENDBRANCH  21  22
ENDBRANCH   1  21
TORSDOF 5
