REMARK SMILES CC1CN(C(=O)c2ccc(CN3C(=O)CNC3=O)cc2)CCO1
REMARK SMILES IDX 5 1 6 2 4 3 3 4 2 5 1 6 23 7 22 8 21 10 7 12 8 13 20 14 9 15
REMARK SMILES IDX 19 16 10 17 11 18 12 19 13 20 17 21 14 22 15 23 16 24 18 25
REMARK H PARENT 16 26
REMARK Flexibility Score:   58.900
ROOT
ATOM      1  C   UNL     1      -1.806   0.880  -1.153  1.00  0.00     0.254 C 
ATOM      2  O   UNL     1      -2.189   1.591  -2.116  1.00  0.00    -0.269 OA
ENDROOT
BRANCH   1   3
ATOM      3  N   UNL     1      -2.742   0.004  -0.561  1.00  0.00    -0.334 N 
BRANCH   3   4
ATOM      4  C   UNL     1      -4.081  -0.014  -1.109  1.00  0.00     0.151 C 
BRANCH   4   5
ATOM      5  C   UNL     1      -5.098  -0.534  -0.129  1.00  0.00     0.134 C 
ATOM      6  C   UNL     1      -5.506   0.678   0.721  1.00  0.00     0.040 C 
BRANCH   5   7
ATOM      7  O   UNL     1      -4.662  -1.505   0.728  1.00  0.00    -0.375 OA
BRANCH   7   8
ATOM      8  C   UNL     1      -3.424  -2.048   0.450  1.00  0.00     0.182 CG0
ATOM      9  G   UNL     1      -2.448  -0.869   0.550  1.00  0.00     0.000 G0
ENDBRANCH   7   8
ENDBRANCH   5   7
ENDBRANCH   4   5
ENDBRANCH   3   4
BRANCH   3  10
ATOM     10  C   UNL     1      -2.448  -0.869   0.550  1.00  0.00     0.148 CG0
ATOM     11  G   UNL     1      -3.424  -2.048   0.450  1.00  0.00     0.000 G0
ENDBRANCH   3  10
ENDBRANCH   1   3
BRANCH   1  12
ATOM     12  C   UNL     1      -0.423   1.021  -0.729  1.00  0.00     0.040 A 
ATOM     13  C   UNL     1      -0.023   1.054   0.590  1.00  0.00     0.014 A 
ATOM     14  C   UNL     1       0.551   1.128  -1.697  1.00  0.00     0.014 A 
ATOM     15  C   UNL     1       1.311   1.192   0.911  1.00  0.00     0.006 A 
ATOM     16  C   UNL     1       1.894   1.267  -1.422  1.00  0.00     0.006 A 
ATOM     17  C   UNL     1       2.277   1.299  -0.073  1.00  0.00    -0.028 A 
BRANCH  17  18
ATOM     18  C   UNL     1       3.723   1.450   0.221  1.00  0.00     0.166 C 
BRANCH  18  19
ATOM     19  N   UNL     1       4.411   0.199   0.336  1.00  0.00    -0.258 N 
ATOM     20  C   UNL     1       5.043  -0.533  -0.728  1.00  0.00     0.250 C 
ATOM     21  C   UNL     1       4.622  -0.578   1.491  1.00  0.00     0.324 C 
ATOM     22  O   UNL     1       4.866  -0.381  -1.973  1.00  0.00    -0.272 OA
ATOM     23  C   UNL     1       5.959  -1.524  -0.098  1.00  0.00     0.218 C 
ATOM     24  N   UNL     1       5.356  -1.762   1.200  1.00  0.00    -0.329 N 
ATOM     25  O   UNL     1       4.203  -0.251   2.644  1.00  0.00    -0.248 OA
ATOM     26  H   UNL     1       5.462  -2.636   1.770  1.00  0.00     0.165 HD
ENDBRANCH  18  19
ENDBRANCH  17  18
ENDBRANCH   1  12
TORSDOF 4
