REMARK SMILES CC(=O)NCC1CN(C(C(=O)NC2CC2)c2ccc(F)cc2)CCO1
REMARK SMILES IDX 7 1 6 2 5 3 4 4 2 5 3 6 1 7 25 9 24 10 8 12 9 13 10 14 11 15
REMARK SMILES IDX 12 16 13 18 14 19 15 20 16 21 17 22 22 23 18 24 21 25 19 26
REMARK SMILES IDX 20 27 23 28
REMARK H PARENT 4 8 12 17
REMARK Flexibility Score:   49.900
ROOT
ATOM      1  C   UNL     1       1.144  -0.471  -0.428  1.00  0.00     0.119 C 
ENDROOT
BRANCH   1   2
ATOM      2  C   UNL     1       2.564   0.036  -0.307  1.00  0.00     0.151 C 
BRANCH   2   3
ATOM      3  C   UNL     1       3.485  -1.011   0.285  1.00  0.00     0.149 C 
BRANCH   3   4
ATOM      4  N   UNL     1       4.825  -0.438   0.288  1.00  0.00    -0.354 N 
ATOM      5  C   UNL     1       5.870  -1.237   0.800  1.00  0.00     0.216 C 
ATOM      6  O   UNL     1       5.612  -2.383   1.223  1.00  0.00    -0.275 OA
ATOM      7  C   UNL     1       7.283  -0.762   0.855  1.00  0.00     0.114 C 
ATOM      8  H   UNL     1       5.039   0.520  -0.067  1.00  0.00     0.163 HD
ENDBRANCH   3   4
ENDBRANCH   2   3
BRANCH   2   9
ATOM      9  O   UNL     1       2.644   1.163   0.507  1.00  0.00    -0.374 OA
BRANCH   9  10
ATOM     10  C   UNL     1       1.642   1.079   1.473  1.00  0.00     0.176 CG0
ATOM     11  G   UNL     1       0.348   1.477   0.748  1.00  0.00     0.000 G0
ENDBRANCH   9  10
ENDBRANCH   2   9
ENDBRANCH   1   2
BRANCH   1  12
ATOM     12  N   UNL     1       0.164   0.538  -0.297  1.00  0.00    -0.283 NA
BRANCH  12  13
ATOM     13  C   UNL     1      -1.143   0.250  -0.741  1.00  0.00     0.177 C 
BRANCH  13  14
ATOM     14  C   UNL     1      -1.741  -0.865  -0.010  1.00  0.00     0.242 C 
ATOM     15  O   UNL     1      -1.210  -1.411   1.008  1.00  0.00    -0.273 OA
ATOM     16  N   UNL     1      -3.005  -1.443  -0.399  1.00  0.00    -0.352 N 
ATOM     17  H   UNL     1      -3.537  -1.073  -1.234  1.00  0.00     0.163 HD
BRANCH  16  18
ATOM     18  C   UNL     1      -3.591  -2.552   0.334  1.00  0.00     0.082 C 
ATOM     19  C   UNL     1      -5.087  -2.701   0.344  1.00  0.00     0.027 C 
ATOM     20  C   UNL     1      -4.245  -3.590  -0.547  1.00  0.00     0.027 C 
ENDBRANCH  16  18
ENDBRANCH  13  14
BRANCH  13  21
ATOM     21  C   UNL     1      -1.971   1.460  -0.665  1.00  0.00    -0.021 A 
ATOM     22  C   UNL     1      -1.477   2.643  -1.224  1.00  0.00     0.009 A 
ATOM     23  C   UNL     1      -3.209   1.546  -0.078  1.00  0.00     0.009 A 
ATOM     24  C   UNL     1      -2.222   3.822  -1.171  1.00  0.00     0.039 A 
ATOM     25  C   UNL     1      -3.951   2.713  -0.023  1.00  0.00     0.039 A 
ATOM     26  C   UNL     1      -3.464   3.879  -0.574  1.00  0.00     0.123 A 
ATOM     27  F   UNL     1      -4.113   5.053  -0.566  1.00  0.00    -0.207 F 
ENDBRANCH  13  21
ENDBRANCH  12  13
BRANCH  12  28
ATOM     28  C   UNL     1       0.348   1.477   0.748  1.00  0.00     0.114 CG0
ATOM     29  G   UNL     1       1.642   1.079   1.473  1.00  0.00     0.000 G0
ENDBRANCH  12  28
ENDBRANCH   1  12
TORSDOF 6
