REMARK SMILES COc1cc(/C=C2\OC(C)(C)CN([C@H](c3cc(F)c(F)c(F)c3)[C@@H](C)O)C2=O)ccc1-n1cnc(C)c1
REMARK SMILES IDX 27 1 28 2 7 3 6 4 5 5 3 6 4 7 31 8 30 9 29 10 2 11 1 12
REMARK SMILES IDX 32 13 33 14 37 15 34 16 35 17 36 18 8 19 9 20 10 21 11 22
REMARK SMILES IDX 13 24 12 25 14 27 15 28 16 29 23 30 17 31 21 32 19 33 18 34
REMARK SMILES IDX 22 35 20 36 24 37 25 38 26 39
REMARK H PARENT 26 40
REMARK Flexibility Score:   56.900
ROOT
ATOM      1  C   UNL     1      -1.764  -0.977  -0.987  1.00  0.00     0.289 C 
ATOM      2  O   UNL     1      -2.039  -1.341  -2.155  1.00  0.00    -0.265 OA
ENDROOT
BRANCH   1   3
ATOM      3  C   UNL     1      -0.370  -0.664  -0.587  1.00  0.00     0.185 C 
ATOM      4  C   UNL     1       0.588  -0.772  -1.477  1.00  0.00     0.060 C 
BRANCH   4   5
ATOM      5  C   UNL     1       1.991  -0.500  -1.226  1.00  0.00    -0.018 A 
ATOM      6  C   UNL     1       3.857   0.676  -0.226  1.00  0.00     0.143 A 
ATOM      7  C   UNL     1       2.485   0.467  -0.418  1.00  0.00     0.057 A 
ATOM      8  C   UNL     1       4.768  -0.126  -0.879  1.00  0.00     0.089 A 
ATOM      9  C   UNL     1       4.255  -1.113  -1.704  1.00  0.00     0.031 A 
ATOM     10  C   UNL     1       2.907  -1.316  -1.890  1.00  0.00     0.011 A 
BRANCH   6  11
ATOM     11  O   UNL     1       4.333   1.675   0.609  1.00  0.00    -0.495 OA
ATOM     12  C   UNL     1       3.387   2.488   1.271  1.00  0.00     0.278 C 
ENDBRANCH   6  11
BRANCH   8  13
ATOM     13  N   UNL     1       6.176   0.013  -0.747  1.00  0.00    -0.302 N 
ATOM     14  C   UNL     1       6.926   1.028  -0.331  1.00  0.00     0.204 A 
ATOM     15  C   UNL     1       7.066  -0.974  -1.060  1.00  0.00     0.116 A 
ATOM     16  N   UNL     1       8.238   0.730  -0.366  1.00  0.00    -0.242 NA
ATOM     17  C   UNL     1       8.348  -0.526  -0.822  1.00  0.00     0.056 A 
ATOM     18  C   UNL     1       9.561  -1.354  -1.059  1.00  0.00     0.068 C 
ENDBRANCH   8  13
ENDBRANCH   4   5
BRANCH   3  19
ATOM     19  O   UNL     1      -0.099  -0.258   0.734  1.00  0.00    -0.480 OA
BRANCH  19  20
ATOM     20  C   UNL     1      -1.207   0.255   1.475  1.00  0.00     0.121 CG0
ATOM     21  C   UNL     1      -1.557   1.565   0.822  1.00  0.00     0.058 C 
ATOM     22  C   UNL     1      -0.836   0.453   2.920  1.00  0.00     0.058 C 
ATOM     23  G   UNL     1      -2.327  -0.780   1.369  1.00  0.00     0.000 G0
ENDBRANCH  19  20
ENDBRANCH   3  19
ENDBRANCH   1   3
BRANCH   1  24
ATOM     24  N   UNL     1      -2.809  -0.845   0.029  1.00  0.00    -0.322 N 
BRANCH  24  25
ATOM     25  C   UNL     1      -2.327  -0.780   1.369  1.00  0.00     0.168 CG0
ATOM     26  G   UNL     1      -1.207   0.255   1.475  1.00  0.00     0.000 G0
ENDBRANCH  24  25
BRANCH  24  27
ATOM     27  C   UNL     1      -4.145  -0.847  -0.446  1.00  0.00     0.144 C 
BRANCH  27  28
ATOM     28  C   UNL     1      -4.885   0.448  -0.398  1.00  0.00    -0.017 A 
ATOM     29  C   UNL     1      -5.627   0.895  -1.508  1.00  0.00     0.048 A 
ATOM     30  C   UNL     1      -4.916   1.283   0.690  1.00  0.00     0.048 A 
ATOM     31  C   UNL     1      -6.328   2.072  -1.507  1.00  0.00     0.162 A 
ATOM     32  C   UNL     1      -5.630   2.486   0.695  1.00  0.00     0.162 A 
ATOM     33  C   UNL     1      -6.346   2.891  -0.408  1.00  0.00     0.194 A 
ATOM     34  F   UNL     1      -7.023   2.438  -2.617  1.00  0.00    -0.204 F 
ATOM     35  F   UNL     1      -5.637   3.280   1.784  1.00  0.00    -0.204 F 
ATOM     36  F   UNL     1      -7.051   4.030  -0.470  1.00  0.00    -0.200 F 
ENDBRANCH  27  28
BRANCH  27  37
ATOM     37  C   UNL     1      -5.003  -1.975   0.051  1.00  0.00     0.138 C 
ATOM     38  C   UNL     1      -4.501  -3.297  -0.506  1.00  0.00     0.041 C 
BRANCH  37  39
ATOM     39  O   UNL     1      -5.144  -2.015   1.426  1.00  0.00    -0.391 OA
ATOM     40  H   UNL     1      -5.936  -1.518   1.751  1.00  0.00     0.211 HD
ENDBRANCH  37  39
ENDBRANCH  27  37
ENDBRANCH  24  27
ENDBRANCH   1  24
TORSDOF 7
