REMARK SMILES Nc1ncc(-c2ccc(-c3ccccc3C(=O)N3CCOC(CO)C3)cc2F)cn1
REMARK SMILES IDX 16 1 17 2 15 3 10 4 11 5 12 6 14 7 13 8 9 9 6 10 7 11 27 12
REMARK SMILES IDX 8 13 26 14 28 15 5 16 2 17 3 18 30 19 4 20 29 21 1 22 18 25
REMARK SMILES IDX 19 26 25 28 22 29 21 30 20 31 23 33 24 34
REMARK H PARENT 1 23 1 24 24 35
REMARK Flexibility Score:   69.900
ROOT
ATOM      1  C   UNL     1      -1.749  -1.269  -1.570  1.00  0.00     0.254 C 
ATOM      2  O   UNL     1      -1.470  -1.109  -2.784  1.00  0.00    -0.269 OA
ENDROOT
BRANCH   1   3
ATOM      3  C   UNL     1      -1.469  -2.481  -0.817  1.00  0.00     0.047 A 
ATOM      4  C   UNL     1      -0.303  -2.667  -0.108  1.00  0.00    -0.006 A 
ATOM      5  C   UNL     1      -0.181  -3.874   0.566  1.00  0.00     0.009 A 
ATOM      6  C   UNL     1      -1.159  -4.843   0.539  1.00  0.00     0.001 A 
ATOM      7  C   UNL     1      -2.462  -3.462  -0.845  1.00  0.00     0.014 A 
ATOM      8  C   UNL     1      -2.326  -4.656  -0.171  1.00  0.00     0.001 A 
BRANCH   4   9
ATOM      9  C   UNL     1       0.776  -1.733  -0.015  1.00  0.00    -0.015 A 
ATOM     10  C   UNL     1       2.917   0.069   0.381  1.00  0.00     0.021 A 
ATOM     11  C   UNL     1       2.293  -0.541   1.454  1.00  0.00     0.012 A 
ATOM     12  C   UNL     1       2.467  -0.226  -0.892  1.00  0.00     0.131 A 
ATOM     13  C   UNL     1       1.247  -1.422   1.267  1.00  0.00     0.009 A 
ATOM     14  C   UNL     1       1.418  -1.110  -1.055  1.00  0.00     0.048 A 
ATOM     15  F   UNL     1       3.041   0.344  -1.992  1.00  0.00    -0.206 F 
BRANCH  10  16
ATOM     16  C   UNL     1       4.025   1.002   0.566  1.00  0.00     0.021 A 
ATOM     17  C   UNL     1       6.119   2.659   0.814  1.00  0.00     0.219 A 
ATOM     18  N   UNL     1       6.143   1.682  -0.121  1.00  0.00    -0.221 NA
ATOM     19  N   UNL     1       5.048   2.817   1.633  1.00  0.00    -0.221 NA
ATOM     20  C   UNL     1       5.114   0.834  -0.275  1.00  0.00     0.125 A 
ATOM     21  C   UNL     1       3.997   2.003   1.525  1.00  0.00     0.125 A 
BRANCH  17  22
ATOM     22  N   UNL     1       7.238   3.537   0.939  1.00  0.00    -0.368 N 
ATOM     23  H   UNL     1       7.475   3.842   1.907  1.00  0.00     0.159 HD
ATOM     24  H   UNL     1       7.781   3.848   0.088  1.00  0.00     0.159 HD
ENDBRANCH  17  22
ENDBRANCH  10  16
ENDBRANCH   4   9
ENDBRANCH   1   3
BRANCH   1  25
ATOM     25  N   UNL     1      -2.382  -0.203  -0.869  1.00  0.00    -0.334 N 
BRANCH  25  26
ATOM     26  C   UNL     1      -2.743  -0.299   0.542  1.00  0.00     0.148 CG0
ATOM     27  G   UNL     1      -4.097   0.413   0.651  1.00  0.00     0.000 G0
ENDBRANCH  25  26
BRANCH  25  28
ATOM     28  C   UNL     1      -2.700   1.039  -1.535  1.00  0.00     0.154 C 
BRANCH  28  29
ATOM     29  C   UNL     1      -3.146   2.117  -0.623  1.00  0.00     0.163 C 
BRANCH  29  30
ATOM     30  O   UNL     1      -3.853   1.752   0.486  1.00  0.00    -0.372 OA
BRANCH  30  31
ATOM     31  C   UNL     1      -4.097   0.413   0.651  1.00  0.00     0.182 CG0
ATOM     32  G   UNL     1      -2.743  -0.299   0.542  1.00  0.00     0.000 G0
ENDBRANCH  30  31
ENDBRANCH  29  30
BRANCH  29  33
ATOM     33  C   UNL     1      -4.007   3.137  -1.380  1.00  0.00     0.189 C 
BRANCH  33  34
ATOM     34  O   UNL     1      -4.279   4.254  -0.614  1.00  0.00    -0.394 OA
ATOM     35  H   UNL     1      -5.041   4.171   0.001  1.00  0.00     0.210 HD
ENDBRANCH  33  34
ENDBRANCH  29  33
ENDBRANCH  28  29
ENDBRANCH  25  28
ENDBRANCH   1  25
TORSDOF 7
