REMARK SMILES COc1cc(N)c(Cl)cc1C(=O)NCC1CN(Cc2ccccc2)CCO1
REMARK SMILES IDX 14 1 13 2 11 3 12 4 10 6 3 7 4 8 5 9 9 10 7 11 8 12 2 13
REMARK SMILES IDX 1 14 6 15 15 18 16 19 17 20 18 21 19 22 20 23 24 24 21 25
REMARK SMILES IDX 23 26 22 27 25 28 27 30 26 31
REMARK H PARENT 13 5 6 16 6 17
REMARK Flexibility Score:  124.900
ROOT
ATOM      1  C   UNL     1      -0.680   1.535  -0.291  1.00  0.00     0.149 C 
ENDROOT
BRANCH   1   2
ATOM      2  N   UNL     1      -1.983   0.943  -0.179  1.00  0.00    -0.349 N 
ATOM      3  C   UNL     1      -2.386  -0.029   0.760  1.00  0.00     0.255 C 
ATOM      4  O   UNL     1      -1.625  -0.498   1.640  1.00  0.00    -0.269 OA
ATOM      5  H   UNL     1      -2.740   1.252  -0.864  1.00  0.00     0.163 HD
BRANCH   3   6
ATOM      6  C   UNL     1      -3.765  -0.569   0.766  1.00  0.00     0.083 A 
ATOM      7  C   UNL     1      -4.714  -0.148  -0.142  1.00  0.00     0.133 A 
ATOM      8  C   UNL     1      -6.012  -0.668  -0.123  1.00  0.00     0.074 A 
ATOM      9  C   UNL     1      -6.372  -1.618   0.810  1.00  0.00     0.054 A 
ATOM     10  C   UNL     1      -4.165  -1.520   1.682  1.00  0.00     0.040 A 
ATOM     11  C   UNL     1      -5.437  -2.050   1.723  1.00  0.00     0.065 A 
ATOM     12  Cl  UNL     1      -5.894  -3.248   2.897  1.00  0.00    -0.082 Cl
BRANCH   7  13
ATOM     13  O   UNL     1      -4.441   0.790  -1.099  1.00  0.00    -0.496 OA
ATOM     14  C   UNL     1      -5.375   1.255  -2.051  1.00  0.00     0.278 C 
ENDBRANCH   7  13
BRANCH   9  15
ATOM     15  N   UNL     1      -7.682  -2.161   0.849  1.00  0.00    -0.397 N 
ATOM     16  H   UNL     1      -7.759  -3.187   1.022  1.00  0.00     0.156 HD
ATOM     17  H   UNL     1      -8.520  -1.554   0.710  1.00  0.00     0.156 HD
ENDBRANCH   9  15
ENDBRANCH   3   6
ENDBRANCH   1   2
BRANCH   1  18
ATOM     18  C   UNL     1       0.421   0.565  -0.613  1.00  0.00     0.151 C 
BRANCH  18  19
ATOM     19  C   UNL     1       1.678   1.310  -0.957  1.00  0.00     0.118 C 
BRANCH  19  20
ATOM     20  N   UNL     1       2.867   0.632  -0.588  1.00  0.00    -0.294 NA
BRANCH  20  21
ATOM     21  C   UNL     1       4.063   1.245  -1.063  1.00  0.00     0.120 C 
BRANCH  21  22
ATOM     22  C   UNL     1       5.253   0.487  -0.647  1.00  0.00    -0.034 A 
ATOM     23  C   UNL     1       5.968   0.691   0.496  1.00  0.00     0.005 A 
ATOM     24  C   UNL     1       5.686  -0.528  -1.493  1.00  0.00     0.005 A 
ATOM     25  C   UNL     1       7.075  -0.052   0.837  1.00  0.00     0.000 A 
ATOM     26  C   UNL     1       6.798  -1.295  -1.178  1.00  0.00     0.000 A 
ATOM     27  C   UNL     1       7.489  -1.057  -0.017  1.00  0.00     0.000 A 
ENDBRANCH  21  22
ENDBRANCH  20  21
BRANCH  20  28
ATOM     28  C   UNL     1       2.925   0.047   0.699  1.00  0.00     0.113 CG0
ATOM     29  G   UNL     1       1.581  -0.267   1.216  1.00  0.00     0.000 G0
ENDBRANCH  20  28
ENDBRANCH  19  20
ENDBRANCH  18  19
BRANCH  18  30
ATOM     30  O   UNL     1       0.540  -0.366   0.341  1.00  0.00    -0.374 OA
BRANCH  30  31
ATOM     31  C   UNL     1       1.581  -0.267   1.216  1.00  0.00     0.176 CG0
ATOM     32  G   UNL     1       2.925   0.047   0.699  1.00  0.00     0.000 G0
ENDBRANCH  30  31
ENDBRANCH  18  30
ENDBRANCH   1  18
TORSDOF 7
