REMARK SMILES CCC1(CC)CN(C(=O)c2ccc(Nc3ncc(Cl)c(NC)n3)c(OC)c2)CCO1
REMARK SMILES IDX 8 1 9 2 7 3 6 4 3 5 2 6 1 7 4 8 5 9 30 10 29 11 28 13 10 15
REMARK SMILES IDX 11 16 27 17 12 18 24 19 13 20 25 21 26 22 14 23 15 25 16 26
REMARK SMILES IDX 23 27 17 28 20 29 18 30 19 31 21 32 22 33
REMARK H PARENT 14 24 21 34
REMARK Flexibility Score:   49.900
ROOT
ATOM      1  C   UNL     1      -1.419   0.674  -1.124  1.00  0.00     0.254 C 
ATOM      2  O   UNL     1      -1.684   1.210  -2.231  1.00  0.00    -0.269 OA
ENDROOT
BRANCH   1   3
ATOM      3  N   UNL     1      -2.517   0.292  -0.305  1.00  0.00    -0.333 N 
BRANCH   3   4
ATOM      4  C   UNL     1      -3.847   0.577  -0.870  1.00  0.00     0.155 C 
BRANCH   4   5
ATOM      5  C   UNL     1      -4.933  -0.061  -0.031  1.00  0.00     0.085 C 
BRANCH   5   6
ATOM      6  C   UNL     1      -5.494   0.952   0.939  1.00  0.00     0.034 C 
ATOM      7  C   UNL     1      -6.693   0.441   1.678  1.00  0.00     0.007 C 
ENDBRANCH   5   6
BRANCH   5   8
ATOM      8  C   UNL     1      -6.061  -0.371  -1.029  1.00  0.00     0.034 C 
ATOM      9  C   UNL     1      -6.504   0.864  -1.772  1.00  0.00     0.007 C 
ENDBRANCH   5   8
BRANCH   5  10
ATOM     10  O   UNL     1      -4.581  -1.241   0.529  1.00  0.00    -0.371 OA
BRANCH  10  11
ATOM     11  C   UNL     1      -3.394  -1.383   1.150  1.00  0.00     0.182 CG0
ATOM     12  G   UNL     1      -2.365  -0.328   0.995  1.00  0.00     0.000 G0
ENDBRANCH  10  11
ENDBRANCH   5  10
ENDBRANCH   4   5
ENDBRANCH   3   4
BRANCH   3  13
ATOM     13  C   UNL     1      -2.365  -0.328   0.995  1.00  0.00     0.148 CG0
ATOM     14  G   UNL     1      -3.394  -1.383   1.150  1.00  0.00     0.000 G0
ENDBRANCH   3  13
ENDBRANCH   1   3
BRANCH   1  15
ATOM     15  C   UNL     1      -0.027   0.487  -0.771  1.00  0.00     0.043 A 
ATOM     16  C   UNL     1       0.556   0.933   0.389  1.00  0.00     0.016 A 
ATOM     17  C   UNL     1       0.781  -0.194  -1.682  1.00  0.00     0.062 A 
ATOM     18  C   UNL     1       1.907   0.706   0.636  1.00  0.00     0.031 A 
ATOM     19  C   UNL     1       2.109  -0.406  -1.419  1.00  0.00     0.143 A 
ATOM     20  C   UNL     1       2.729   0.040  -0.240  1.00  0.00     0.084 A 
BRANCH  19  21
ATOM     21  O   UNL     1       2.902  -1.078  -2.323  1.00  0.00    -0.495 OA
ATOM     22  C   UNL     1       2.362  -1.557  -3.533  1.00  0.00     0.278 C 
ENDBRANCH  19  21
BRANCH  20  23
ATOM     23  N   UNL     1       4.101  -0.215  -0.036  1.00  0.00    -0.321 N 
ATOM     24  H   UNL     1       4.595  -0.745  -0.806  1.00  0.00     0.170 HD
BRANCH  23  25
ATOM     25  C   UNL     1       4.881   0.153   1.072  1.00  0.00     0.229 A 
ATOM     26  N   UNL     1       4.461   0.816   2.153  1.00  0.00    -0.220 NA
ATOM     27  N   UNL     1       6.200  -0.183   1.070  1.00  0.00    -0.194 NA
ATOM     28  C   UNL     1       5.265   1.144   3.187  1.00  0.00     0.139 A 
ATOM     29  C   UNL     1       7.065   0.091   2.029  1.00  0.00     0.150 A 
ATOM     30  C   UNL     1       6.612   0.777   3.139  1.00  0.00     0.101 A 
ATOM     31  Cl  UNL     1       7.729   1.159   4.425  1.00  0.00    -0.079 Cl
BRANCH  29  32
ATOM     32  N   UNL     1       8.411  -0.336   1.867  1.00  0.00    -0.372 N 
ATOM     33  C   UNL     1       8.862  -1.047   0.704  1.00  0.00     0.141 C 
ATOM     34  H   UNL     1       9.102  -0.132   2.616  1.00  0.00     0.161 HD
ENDBRANCH  29  32
ENDBRANCH  23  25
ENDBRANCH  20  23
ENDBRANCH   1  15
TORSDOF 8
