REMARK SMILES O=C(O)[C@H]1O[C@H]2O[C@@H]1C(=O)N(Cc1ccccc1)[C@@H]2Cc1ccccc1
REMARK SMILES IDX 4 1 5 2 6 3 7 4 8 5 2 7 1 8 3 9 19 11 11 12 9 13 10 14 12 16
REMARK SMILES IDX 13 17 14 18 18 19 15 20 17 21 16 22 20 23 21 24 22 25 26 26
REMARK SMILES IDX 23 27 25 28 24 29
REMARK H PARENT 3 10
REMARK Flexibility Score:   79.900
ROOT
ATOM      1  C   UNL     1      -0.802   3.341   0.718  1.00  0.00     0.269 C 
ATOM      2  O   UNL     1      -1.320   2.255   1.425  1.00  0.00    -0.332 OA
ATOM      3  C   UNL     1      -1.541   1.227   0.535  1.00  0.00     0.275 C 
ATOM      4  O   UNL     1      -1.511   1.812  -0.748  1.00  0.00    -0.334 OA
ATOM      5  C   UNL     1      -0.484   2.741  -0.634  1.00  0.00     0.251 CG0
ATOM      6  G   UNL     1       0.805   1.963  -0.515  1.00  0.00     0.000 G0
ENDROOT
BRANCH   1   7
ATOM      7  C   UNL     1      -1.740   4.468   0.659  1.00  0.00     0.336 C 
ATOM      8  O   UNL     1      -2.895   4.450   1.193  1.00  0.00    -0.249 OA
BRANCH   7   9
ATOM      9  O   UNL     1      -1.360   5.612  -0.010  1.00  0.00    -0.479 OA
ATOM     10  H   UNL     1      -2.019   6.318  -0.304  1.00  0.00     0.296 HD
ENDBRANCH   7   9
ENDBRANCH   1   7
BRANCH   3  11
ATOM     11  C   UNL     1      -0.417   0.194   0.634  1.00  0.00     0.146 C 
BRANCH  11  12
ATOM     12  N   UNL     1       0.873   0.883   0.430  1.00  0.00    -0.328 N 
BRANCH  12  13
ATOM     13  C   UNL     1       0.805   1.963  -0.515  1.00  0.00     0.255 CG0
ATOM     14  O   UNL     1       1.804   2.224  -1.203  1.00  0.00    -0.272 OA
ATOM     15  G   UNL     1      -0.484   2.741  -0.634  1.00  0.00     0.000 G0
ENDBRANCH  12  13
BRANCH  12  16
ATOM     16  C   UNL     1       2.072   0.521   1.127  1.00  0.00     0.155 C 
BRANCH  16  17
ATOM     17  C   UNL     1       2.931  -0.488   0.483  1.00  0.00    -0.029 A 
ATOM     18  C   UNL     1       3.933  -0.136  -0.427  1.00  0.00     0.005 A 
ATOM     19  C   UNL     1       2.829  -1.852   0.734  1.00  0.00     0.005 A 
ATOM     20  C   UNL     1       4.748  -1.077  -1.020  1.00  0.00     0.000 A 
ATOM     21  C   UNL     1       3.641  -2.789   0.143  1.00  0.00     0.000 A 
ATOM     22  C   UNL     1       4.611  -2.411  -0.742  1.00  0.00     0.000 A 
ENDBRANCH  16  17
ENDBRANCH  12  16
ENDBRANCH  11  12
BRANCH  11  23
ATOM     23  C   UNL     1      -0.531  -0.812  -0.489  1.00  0.00     0.066 C 
BRANCH  23  24
ATOM     24  C   UNL     1      -1.815  -1.564  -0.467  1.00  0.00    -0.046 A 
ATOM     25  C   UNL     1      -1.896  -2.725   0.269  1.00  0.00     0.004 A 
ATOM     26  C   UNL     1      -2.943  -1.172  -1.149  1.00  0.00     0.004 A 
ATOM     27  C   UNL     1      -3.050  -3.461   0.322  1.00  0.00     0.000 A 
ATOM     28  C   UNL     1      -4.124  -1.915  -1.101  1.00  0.00     0.000 A 
ATOM     29  C   UNL     1      -4.192  -3.081  -0.357  1.00  0.00     0.000 A 
ENDBRANCH  23  24
ENDBRANCH  11  23
ENDBRANCH   3  11
TORSDOF 6
