REMARK SMILES COc1ccc(-c2cc(C(N)=O)c3[nH]c4ccc(C(=O)N5C[C@@H]6C[C@H]5CO6)cc4c3c2)cc1F
REMARK SMILES IDX 7 1 8 2 9 3 13 4 14 5 15 6 16 7 17 8 18 9 28 10 29 11 30 12
REMARK SMILES IDX 31 13 6 15 3 16 4 17 33 18 5 19 32 20 34 21 2 22 1 23 10 24
REMARK SMILES IDX 11 25 12 26 19 29 20 30 21 31 22 32 25 33 23 34 24 35 26 36
REMARK SMILES IDX 27 37
REMARK H PARENT 14 14 11 27 11 28
ROOT
ATOM      1  C   UNL     1       2.963  -0.825   0.077  1.00  0.00    -0.017 A 
ATOM      2  C   UNL     1       3.221  -2.129   0.484  1.00  0.00     0.024 A 
ATOM      3  C   UNL     1       2.206  -2.989   0.850  1.00  0.00     0.064 A 
ATOM      4  C   UNL     1       0.909  -2.542   0.810  1.00  0.00     0.059 A 
ATOM      5  N   UNL     1      -0.263  -3.147   1.109  1.00  0.00    -0.354 N 
ATOM      6  C   UNL     1      -1.274  -2.278   0.910  1.00  0.00     0.047 A 
ATOM      7  C   UNL     1      -2.639  -2.353   1.060  1.00  0.00     0.027 A 
ATOM      8  C   UNL     1      -3.427  -1.248   0.774  1.00  0.00     0.016 A 
ATOM      9  C   UNL     1      -2.940  -0.043   0.336  1.00  0.00     0.040 A 
ATOM     10  C   UNL     1      -1.535  -0.005   0.193  1.00  0.00     0.024 A 
ATOM     11  C   UNL     1      -0.745  -1.083   0.472  1.00  0.00     0.008 A 
ATOM     12  C   UNL     1       0.639  -1.251   0.408  1.00  0.00     0.009 A 
ATOM     13  C   UNL     1       1.662  -0.372   0.034  1.00  0.00     0.019 A 
ATOM     14  H   UNL     1      -0.329  -4.127   1.434  1.00  0.00     0.167 HD
ENDROOT
BRANCH   1  15
ATOM     15  C   UNL     1       4.066   0.053  -0.297  1.00  0.00    -0.015 A 
ATOM     16  C   UNL     1       6.237   1.641  -0.891  1.00  0.00     0.154 A 
ATOM     17  C   UNL     1       4.998   1.814  -1.541  1.00  0.00     0.050 A 
ATOM     18  C   UNL     1       6.348   0.626   0.082  1.00  0.00     0.165 A 
ATOM     19  C   UNL     1       3.917   1.029  -1.251  1.00  0.00     0.013 A 
ATOM     20  C   UNL     1       5.264  -0.164   0.377  1.00  0.00     0.052 A 
ATOM     21  F   UNL     1       7.511   0.428   0.727  1.00  0.00    -0.203 F 
BRANCH  16  22
ATOM     22  O   UNL     1       7.240   2.388  -1.178  1.00  0.00    -0.494 OA
ATOM     23  C   UNL     1       8.196   3.206  -1.546  1.00  0.00     0.278 C 
ENDBRANCH  16  22
ENDBRANCH   1  15
BRANCH   3  24
ATOM     24  C   UNL     1       2.506  -4.353   1.285  1.00  0.00     0.250 C 
ATOM     25  N   UNL     1       3.864  -4.777   1.362  1.00  0.00    -0.366 N 
ATOM     26  O   UNL     1       1.546  -5.128   1.585  1.00  0.00    -0.269 OA
ATOM     27  H   UNL     1       4.427  -4.850   0.498  1.00  0.00     0.159 HD
ATOM     28  H   UNL     1       4.335  -5.021   2.265  1.00  0.00     0.159 HD
ENDBRANCH   3  24
BRANCH   9  29
ATOM     29  C   UNL     1      -3.661   1.136   0.030  1.00  0.00     0.254 C 
ATOM     30  O   UNL     1      -2.963   2.209  -0.241  1.00  0.00    -0.269 OA
BRANCH  29  31
ATOM     31  N   UNL     1      -5.047   1.382  -0.040  1.00  0.00    -0.331 N 
ATOM     32  C   UNL     1      -5.472   2.785  -0.400  1.00  0.00     0.152 C 
ATOM     33  C   UNL     1      -6.263   0.701   0.133  1.00  0.00     0.114 C 
ATOM     34  C   UNL     1      -6.942   2.806  -0.141  1.00  0.00     0.140 C 
ATOM     35  C   UNL     1      -7.039   1.765   0.955  1.00  0.00     0.061 C 
ATOM     36  C   UNL     1      -7.065   0.848  -1.164  1.00  0.00     0.185 C 
ATOM     37  O   UNL     1      -7.571   2.143  -1.180  1.00  0.00    -0.374 OA
ENDBRANCH  29  31
ENDBRANCH   9  29
TORSDOF 5
