REMARK SMILES N#Cc1ccc(CN2CC3CN(CCNS(=O)(=O)c4ccc(F)cc4)CC(C2)O3)cc1
REMARK SMILES IDX 11 1 10 2 29 4 27 5 28 7 8 8 7 9 6 10 1 11 2 12 3 13 4 14
REMARK SMILES IDX 31 15 5 16 30 17 9 18 12 20 13 21 14 22 15 23 16 25 17 26
REMARK SMILES IDX 18 27 19 28 20 29 25 30 21 31 24 32 22 33 23 34 26 35
REMARK H PARENT 15 24
REMARK Flexibility Score:  352.800
ROOT
ATOM      1  C   UNL     1       0.188   0.977   0.579  1.00  0.00     0.118 C 
ENDROOT
BRANCH   1   2
ATOM      2  C   UNL     1      -1.306   1.104   0.480  1.00  0.00     0.146 CG0
ATOM      3  G   UNL     1      -1.878  -0.025   1.297  1.00  0.00     0.000 G0
BRANCH   2   4
ATOM      4  O   UNL     1      -1.586   0.932  -0.885  1.00  0.00    -0.370 OA
BRANCH   4   5
ATOM      5  C   UNL     1      -1.457  -0.416  -1.130  1.00  0.00     0.146 CG1
ATOM      6  G   UNL     1      -0.213  -1.066  -0.690  1.00  0.00     0.000 G1
BRANCH   5   7
ATOM      7  C   UNL     1      -2.725  -1.069  -0.590  1.00  0.00     0.118 C 
BRANCH   7   8
ATOM      8  N   UNL     1      -3.116  -0.561   0.723  1.00  0.00    -0.294 NA
BRANCH   8   9
ATOM      9  C   UNL     1      -4.041   0.515   0.653  1.00  0.00     0.120 C 
BRANCH   9  10
ATOM     10  C   UNL     1      -5.411   0.180   0.522  1.00  0.00    -0.034 A 
ATOM     11  N   UNL     1     -10.393  -0.272  -1.585  1.00  0.00    -0.192 NA
ATOM     12  C   UNL     1      -9.393  -0.289  -0.963  1.00  0.00     0.099 C 
ATOM     13  C   UNL     1      -8.186  -0.306  -0.239  1.00  0.00     0.052 A 
ATOM     14  C   UNL     1      -7.214  -1.294  -0.365  1.00  0.00     0.020 A 
ATOM     15  C   UNL     1      -7.667   0.895   0.308  1.00  0.00     0.020 A 
ATOM     16  C   UNL     1      -5.903  -1.085  -0.013  1.00  0.00     0.006 A 
ATOM     17  C   UNL     1      -6.470   1.156   0.670  1.00  0.00     0.006 A 
ENDBRANCH   9  10
ENDBRANCH   8   9
BRANCH   8  18
ATOM     18  C   UNL     1      -1.878  -0.025   1.297  1.00  0.00     0.118 CG0
ATOM     19  G   UNL     1      -1.306   1.104   0.480  1.00  0.00     0.000 G0
ENDBRANCH   8  18
ENDBRANCH   7   8
ENDBRANCH   5   7
ENDBRANCH   4   5
ENDBRANCH   2   4
ENDBRANCH   1   2
BRANCH   1  20
ATOM     20  N   UNL     1       0.519  -0.417   0.300  1.00  0.00    -0.297 NA
BRANCH  20  21
ATOM     21  C   UNL     1       1.901  -0.297  -0.079  1.00  0.00     0.101 C 
BRANCH  21  22
ATOM     22  C   UNL     1       2.752   0.076   0.991  1.00  0.00     0.114 C 
BRANCH  22  23
ATOM     23  N   UNL     1       4.081   0.416   0.954  1.00  0.00    -0.210 NA
ATOM     24  H   UNL     1       4.556   1.237   0.926  1.00  0.00     0.141 HD
BRANCH  23  25
ATOM     25  S   UNL     1       4.945  -1.016   0.416  1.00  0.00     0.240 S 
ATOM     26  O   UNL     1       4.206  -1.284  -1.025  1.00  0.00    -0.207 OA
ATOM     27  O   UNL     1       4.948  -2.227   1.023  1.00  0.00    -0.207 OA
BRANCH  25  28
ATOM     28  C   UNL     1       6.417  -0.290  -0.272  1.00  0.00     0.082 A 
ATOM     29  C   UNL     1       6.462   0.892  -0.891  1.00  0.00     0.025 A 
ATOM     30  C   UNL     1       7.531  -0.947   0.290  1.00  0.00     0.025 A 
ATOM     31  C   UNL     1       7.715   1.531  -0.938  1.00  0.00     0.040 A 
ATOM     32  C   UNL     1       8.792  -0.325   0.163  1.00  0.00     0.040 A 
ATOM     33  C   UNL     1       8.824   0.911  -0.435  1.00  0.00     0.123 A 
ATOM     34  F   UNL     1      10.011   1.620  -0.458  1.00  0.00    -0.207 F 
ENDBRANCH  25  28
ENDBRANCH  23  25
ENDBRANCH  22  23
ENDBRANCH  21  22
ENDBRANCH  20  21
BRANCH  20  35
ATOM     35  C   UNL     1      -0.213  -1.066  -0.690  1.00  0.00     0.118 CG1
ATOM     36  G   UNL     1      -1.457  -0.416  -1.130  1.00  0.00     0.000 G1
ENDBRANCH  20  35
ENDBRANCH   1  20
TORSDOF 7
