REMARK SMILES CC1CN(C(=O)c2ccc(Cl)c(S(=O)(=O)NCc3ccco3)c2)CC(C)O1
REMARK SMILES IDX 4 1 5 2 6 3 24 4 25 5 26 6 27 7 2 8 1 9 3 11 7 13 8 14 23 15
REMARK SMILES IDX 9 16 12 17 10 18 11 19 13 20 14 21 15 22 16 23 17 25 18 26
REMARK SMILES IDX 19 27 22 28 20 29 21 30
REMARK H PARENT 16 24
REMARK Flexibility Score:  112.900
ROOT
ATOM      1  N   UNL     1      -3.023  -0.329  -0.766  1.00  0.00    -0.333 N 
ATOM      2  C   UNL     1      -1.662  -0.703  -0.928  1.00  0.00     0.254 C 
ATOM      3  O   UNL     1      -1.333  -1.820  -1.458  1.00  0.00    -0.269 OA
ENDROOT
BRANCH   1   4
ATOM      4  C   UNL     1      -4.044  -1.256  -1.221  1.00  0.00     0.151 C 
BRANCH   4   5
ATOM      5  C   UNL     1      -5.274  -0.467  -1.615  1.00  0.00     0.135 C 
ATOM      6  C   UNL     1      -6.302  -1.461  -2.116  1.00  0.00     0.040 C 
BRANCH   5   7
ATOM      7  O   UNL     1      -5.777   0.244  -0.561  1.00  0.00    -0.372 OA
BRANCH   7   8
ATOM      8  C   UNL     1      -4.878   0.796   0.315  1.00  0.00     0.135 CG0
ATOM      9  C   UNL     1      -4.926   0.043   1.646  1.00  0.00     0.040 C 
ATOM     10  G   UNL     1      -3.462   0.909  -0.181  1.00  0.00     0.000 G0
ENDBRANCH   7   8
ENDBRANCH   5   7
ENDBRANCH   4   5
ENDBRANCH   1   4
BRANCH   1  11
ATOM     11  C   UNL     1      -3.462   0.909  -0.181  1.00  0.00     0.151 CG0
ATOM     12  G   UNL     1      -4.878   0.796   0.315  1.00  0.00     0.000 G0
ENDBRANCH   1  11
BRANCH   2  13
ATOM     13  C   UNL     1      -0.546   0.140  -0.512  1.00  0.00     0.041 A 
ATOM     14  C   UNL     1      -0.457   1.440  -0.960  1.00  0.00     0.015 A 
ATOM     15  C   UNL     1       0.406  -0.396   0.329  1.00  0.00     0.037 A 
ATOM     16  C   UNL     1       0.622   2.186  -0.534  1.00  0.00     0.023 A 
ATOM     17  C   UNL     1       1.507   0.353   0.769  1.00  0.00     0.101 A 
ATOM     18  C   UNL     1       1.583   1.635   0.319  1.00  0.00     0.061 A 
ATOM     19  Cl  UNL     1       2.883   2.662   0.817  1.00  0.00    -0.083 Cl
BRANCH  17  20
ATOM     20  S   UNL     1       2.641  -0.452   1.804  1.00  0.00     0.242 S 
ATOM     21  O   UNL     1       2.079  -1.759   2.301  1.00  0.00    -0.207 OA
ATOM     22  O   UNL     1       2.801   0.429   3.048  1.00  0.00    -0.207 OA
BRANCH  20  23
ATOM     23  N   UNL     1       4.151  -0.618   1.072  1.00  0.00    -0.204 NA
ATOM     24  H   UNL     1       4.171  -0.816   0.072  1.00  0.00     0.141 HD
BRANCH  23  25
ATOM     25  C   UNL     1       5.265   0.020   1.659  1.00  0.00     0.174 C 
BRANCH  25  26
ATOM     26  C   UNL     1       6.531  -0.240   0.871  1.00  0.00     0.118 A 
ATOM     27  C   UNL     1       7.037   0.510  -0.171  1.00  0.00     0.047 A 
ATOM     28  O   UNL     1       7.357  -1.239   1.061  1.00  0.00    -0.468 OA
ATOM     29  C   UNL     1       8.199  -0.105  -0.575  1.00  0.00     0.042 A 
ATOM     30  C   UNL     1       8.361  -1.213   0.239  1.00  0.00     0.195 A 
ENDBRANCH  25  26
ENDBRANCH  23  25
ENDBRANCH  20  23
ENDBRANCH  17  20
ENDBRANCH   2  13
TORSDOF 5
