REMARK SMILES Cn1cc(-c2ccncc2/C=C/C(=O)Nc2ccc(CN3CCOC(C)(C)C3)cc2)cn1
REMARK SMILES IDX 16 1 17 2 18 3 19 4 29 5 30 6 15 7 13 8 14 9 12 11 11 12
REMARK SMILES IDX 10 13 5 14 6 15 7 16 9 17 8 18 4 19 2 20 3 21 32 22 31 23
REMARK SMILES IDX 1 24 20 25 21 26 22 27 28 29 25 30 26 31 27 32 24 33 23 34
REMARK H PARENT 15 10
REMARK Flexibility Score:  114.900
ROOT
ATOM      1  C   UNL     1      -0.060   0.411  -0.519  1.00  0.00     0.041 A 
ATOM      2  C   UNL     1      -0.628   0.715   0.684  1.00  0.00     0.026 A 
ATOM      3  C   UNL     1      -1.989   0.983   0.846  1.00  0.00     0.007 A 
ATOM      4  C   UNL     1      -2.841   0.951  -0.236  1.00  0.00    -0.034 A 
ATOM      5  C   UNL     1      -2.293   0.648  -1.456  1.00  0.00     0.007 A 
ATOM      6  C   UNL     1      -0.955   0.385  -1.608  1.00  0.00     0.026 A 
ENDROOT
BRANCH   1   7
ATOM      7  N   UNL     1       1.283   0.132  -0.766  1.00  0.00    -0.323 N 
ATOM      8  C   UNL     1       2.350   0.097   0.146  1.00  0.00     0.248 C 
ATOM      9  O   UNL     1       2.103   0.344   1.352  1.00  0.00    -0.270 OA
ATOM     10  H   UNL     1       1.545  -0.086  -1.779  1.00  0.00     0.170 HD
BRANCH   8  11
ATOM     11  C   UNL     1       3.739  -0.206  -0.195  1.00  0.00     0.072 C 
ATOM     12  C   UNL     1       4.180  -0.486  -1.393  1.00  0.00     0.016 C 
BRANCH  12  13
ATOM     13  C   UNL     1       5.513  -0.789  -1.824  1.00  0.00     0.001 A 
ATOM     14  C   UNL     1       6.666  -0.626  -1.109  1.00  0.00    -0.005 A 
ATOM     15  C   UNL     1       7.891  -1.080  -1.631  1.00  0.00     0.029 A 
ATOM     16  C   UNL     1       7.953  -1.688  -2.861  1.00  0.00     0.111 A 
ATOM     17  C   UNL     1       5.667  -1.420  -3.073  1.00  0.00     0.119 A 
ATOM     18  N   UNL     1       6.827  -1.837  -3.547  1.00  0.00    -0.264 NA
BRANCH  14  19
ATOM     19  C   UNL     1       6.772   0.093   0.147  1.00  0.00     0.020 A 
ATOM     20  N   UNL     1       7.220   0.622   2.282  1.00  0.00    -0.275 N 
ATOM     21  C   UNL     1       7.216  -0.380   1.388  1.00  0.00     0.117 A 
ATOM     22  N   UNL     1       6.796   1.735   1.677  1.00  0.00    -0.181 NA
ATOM     23  C   UNL     1       6.517   1.456   0.391  1.00  0.00     0.143 A 
ATOM     24  C   UNL     1       7.623   0.511   3.691  1.00  0.00     0.173 C 
ENDBRANCH  14  19
ENDBRANCH  12  13
ENDBRANCH   8  11
ENDBRANCH   1   7
BRANCH   4  25
ATOM     25  C   UNL     1      -4.290   1.218  -0.162  1.00  0.00     0.120 C 
BRANCH  25  26
ATOM     26  N   UNL     1      -5.030   0.024   0.066  1.00  0.00    -0.294 NA
BRANCH  26  27
ATOM     27  C   UNL     1      -4.756  -0.681   1.268  1.00  0.00     0.113 CG0
ATOM     28  G   UNL     1      -5.980  -1.457   1.747  1.00  0.00     0.000 G0
ENDBRANCH  26  27
BRANCH  26  29
ATOM     29  C   UNL     1      -6.349  -0.030  -0.444  1.00  0.00     0.119 C 
BRANCH  29  30
ATOM     30  C   UNL     1      -7.415  -0.033   0.594  1.00  0.00     0.075 C 
ATOM     31  C   UNL     1      -7.778   1.412   0.907  1.00  0.00     0.043 C 
ATOM     32  C   UNL     1      -8.688  -0.665   0.016  1.00  0.00     0.043 C 
BRANCH  30  33
ATOM     33  O   UNL     1      -7.088  -0.647   1.781  1.00  0.00    -0.373 OA
BRANCH  33  34
ATOM     34  C   UNL     1      -5.980  -1.457   1.747  1.00  0.00     0.176 CG0
ATOM     35  G   UNL     1      -4.756  -0.681   1.268  1.00  0.00     0.000 G0
ENDBRANCH  33  34
ENDBRANCH  30  33
ENDBRANCH  29  30
ENDBRANCH  26  29
ENDBRANCH  25  26
ENDBRANCH   4  25
TORSDOF 6
