REMARK SMILES Fc1ccc(CN2CCOC(Cn3cncn3)C2)c2ncccc12
REMARK SMILES IDX 7 1 6 2 5 3 2 4 3 5 24 6 4 7 23 8 19 9 22 10 20 11 21 12
REMARK SMILES IDX 1 13 8 14 18 16 11 17 10 18 9 19 12 21 13 22 14 23 17 24
REMARK SMILES IDX 15 25 16 26
REMARK H PARENT
REMARK Flexibility Score:   63.900
ROOT
ATOM      1  N   UNL     1       0.097  -0.482   0.347  1.00  0.00    -0.294 NA
ENDROOT
BRANCH   1   2
ATOM      2  C   UNL     1      -0.890  -0.862   1.261  1.00  0.00     0.122 C 
BRANCH   2   3
ATOM      3  C   UNL     1      -2.140  -0.100   1.084  1.00  0.00    -0.007 A 
ATOM      4  C   UNL     1      -4.440   1.498   0.839  1.00  0.00     0.132 A 
ATOM      5  C   UNL     1      -3.468   1.801   1.784  1.00  0.00     0.040 A 
ATOM      6  C   UNL     1      -4.247   0.410   0.039  1.00  0.00     0.036 A 
ATOM      7  C   UNL     1      -2.343   1.006   1.892  1.00  0.00     0.010 A 
ATOM      8  C   UNL     1      -5.214   0.094  -0.892  1.00  0.00     0.015 A 
ATOM      9  C   UNL     1      -3.115  -0.377   0.160  1.00  0.00     0.078 A 
ATOM     10  C   UNL     1      -5.078  -0.997  -1.712  1.00  0.00     0.021 A 
ATOM     11  N   UNL     1      -3.013  -1.429  -0.651  1.00  0.00    -0.256 NA
ATOM     12  C   UNL     1      -3.927  -1.772  -1.568  1.00  0.00     0.112 A 
ATOM     13  F   UNL     1      -5.535   2.283   0.743  1.00  0.00    -0.206 F 
ENDBRANCH   2   3
ENDBRANCH   1   2
BRANCH   1  14
ATOM     14  C   UNL     1      -0.059  -0.619  -1.032  1.00  0.00     0.113 CG0
ATOM     15  G   UNL     1       1.218  -0.287  -1.809  1.00  0.00     0.000 G0
ENDBRANCH   1  14
BRANCH   1  16
ATOM     16  C   UNL     1       1.253   0.185   0.815  1.00  0.00     0.119 C 
BRANCH  16  17
ATOM     17  C   UNL     1       2.523  -0.171   0.112  1.00  0.00     0.154 C 
BRANCH  17  18
ATOM     18  O   UNL     1       2.345  -0.751  -1.131  1.00  0.00    -0.374 OA
BRANCH  18  19
ATOM     19  C   UNL     1       1.218  -0.287  -1.809  1.00  0.00     0.176 CG0
ATOM     20  G   UNL     1      -0.059  -0.619  -1.032  1.00  0.00     0.000 G0
ENDBRANCH  18  19
ENDBRANCH  17  18
BRANCH  17  21
ATOM     21  C   UNL     1       3.532   0.955   0.085  1.00  0.00     0.179 C 
BRANCH  21  22
ATOM     22  N   UNL     1       4.810   0.422  -0.362  1.00  0.00    -0.250 N 
ATOM     23  C   UNL     1       5.298   0.319  -1.613  1.00  0.00     0.219 A 
ATOM     24  N   UNL     1       5.753  -0.077   0.436  1.00  0.00    -0.160 NA
ATOM     25  N   UNL     1       6.526  -0.236  -1.593  1.00  0.00    -0.224 NA
ATOM     26  C   UNL     1       6.800  -0.479  -0.299  1.00  0.00     0.246 A 
ENDBRANCH  21  22
ENDBRANCH  17  21
ENDBRANCH  16  17
ENDBRANCH   1  16
TORSDOF 4
