REMARK SMILES Cc1nn(C)cc1-c1cc(C(N)=O)nc2cc(CN3C[C@@H](C)O[C@@H](C(F)(F)F)C3)ccc12
REMARK SMILES IDX 19 1 18 2 17 3 8 4 9 5 32 6 10 7 31 8 15 9 14 10 30 11 16 12
REMARK SMILES IDX 7 13 2 14 3 15 4 16 6 17 1 18 5 19 11 20 12 21 13 22 20 25
REMARK SMILES IDX 29 27 24 28 23 29 21 30 22 31 25 33 26 34 27 35 28 36
REMARK H PARENT 12 23 12 24
REMARK Flexibility Score:   71.900
ROOT
ATOM      1  N   UNL     1      -3.115   0.494   0.624  1.00  0.00    -0.294 NA
ENDROOT
BRANCH   1   2
ATOM      2  C   UNL     1      -2.283   1.300   1.452  1.00  0.00     0.120 C 
BRANCH   2   3
ATOM      3  C   UNL     1      -0.877   1.051   1.033  1.00  0.00    -0.032 A 
ATOM      4  C   UNL     1       3.025   0.581  -0.333  1.00  0.00    -0.003 A 
ATOM      5  C   UNL     1       3.555   1.389  -1.327  1.00  0.00     0.043 A 
ATOM      6  C   UNL     1       1.742   0.715   0.135  1.00  0.00     0.008 A 
ATOM      7  C   UNL     1       2.719   2.365  -1.844  1.00  0.00     0.129 A 
ATOM      8  C   UNL     1       1.214  -0.094   1.127  1.00  0.00     0.011 A 
ATOM      9  C   UNL     1       0.955   1.708  -0.421  1.00  0.00     0.072 A 
ATOM     10  N   UNL     1       1.443   2.517  -1.395  1.00  0.00    -0.243 NA
ATOM     11  C   UNL     1      -0.090   0.062   1.585  1.00  0.00     0.006 A 
ATOM     12  C   UNL     1      -0.321   1.848   0.039  1.00  0.00     0.034 A 
BRANCH   4  13
ATOM     13  C   UNL     1       3.850  -0.463   0.252  1.00  0.00     0.023 A 
ATOM     14  C   UNL     1       3.949  -1.761  -0.201  1.00  0.00     0.067 A 
ATOM     15  N   UNL     1       4.816  -2.408   0.614  1.00  0.00    -0.178 NA
ATOM     16  N   UNL     1       5.255  -1.570   1.545  1.00  0.00    -0.275 N 
ATOM     17  C   UNL     1       4.678  -0.364   1.349  1.00  0.00     0.117 A 
ATOM     18  C   UNL     1       3.244  -2.359  -1.364  1.00  0.00     0.069 C 
ATOM     19  C   UNL     1       6.206  -1.929   2.596  1.00  0.00     0.173 C 
ENDBRANCH   4  13
BRANCH   7  20
ATOM     20  C   UNL     1       3.255   3.243  -2.904  1.00  0.00     0.267 C 
ATOM     21  N   UNL     1       2.386   4.256  -3.441  1.00  0.00    -0.364 N 
ATOM     22  O   UNL     1       4.434   3.111  -3.326  1.00  0.00    -0.268 OA
ATOM     23  H   UNL     1       1.455   3.972  -3.858  1.00  0.00     0.160 HD
ATOM     24  H   UNL     1       2.672   5.276  -3.421  1.00  0.00     0.160 HD
ENDBRANCH   7  20
ENDBRANCH   2   3
ENDBRANCH   1   2
BRANCH   1  25
ATOM     25  C   UNL     1      -2.890  -0.904   0.691  1.00  0.00     0.116 CG0
ATOM     26  G   UNL     1      -3.847  -1.586  -0.268  1.00  0.00     0.000 G0
ENDBRANCH   1  25
BRANCH   1  27
ATOM     27  C   UNL     1      -4.470   0.930   0.550  1.00  0.00     0.126 C 
BRANCH  27  28
ATOM     28  C   UNL     1      -5.459  -0.059   0.096  1.00  0.00     0.237 C 
BRANCH  28  29
ATOM     29  O   UNL     1      -5.116  -1.387   0.269  1.00  0.00    -0.363 OA
BRANCH  29  30
ATOM     30  C   UNL     1      -3.847  -1.586  -0.268  1.00  0.00     0.130 CG0
ATOM     31  C   UNL     1      -3.549  -3.064  -0.388  1.00  0.00     0.040 C 
ATOM     32  G   UNL     1      -2.890  -0.904   0.691  1.00  0.00     0.000 G0
ENDBRANCH  29  30
ENDBRANCH  28  29
BRANCH  28  33
ATOM     33  C   UNL     1      -6.794   0.152   0.782  1.00  0.00     0.415 C 
ATOM     34  F   UNL     1      -6.735  -0.135   2.137  1.00  0.00    -0.168 F 
ATOM     35  F   UNL     1      -7.122   1.482   0.663  1.00  0.00    -0.168 F 
ATOM     36  F   UNL     1      -7.788  -0.570   0.144  1.00  0.00    -0.168 F 
ENDBRANCH  28  33
ENDBRANCH  27  28
ENDBRANCH   1  27
TORSDOF 5
