REMARK SMILES Cc1ccc([N+](=O)[O-])c2c1C(N1CC(C)OC(C)C1)C(C)(C)O2
REMARK SMILES IDX 19 1 12 2 11 3 2 4 3 5 10 6 4 7 9 8 5 9 23 10 20 11 1 12
REMARK SMILES IDX 21 13 22 14 6 15 7 16 8 17 13 18 17 20 18 21 16 22 14 23
REMARK SMILES IDX 15 24
REMARK H PARENT
REMARK Flexibility Score:   40.900
ROOT
ATOM      1  C   UNL     1       1.372   0.419   0.873  1.00  0.00     0.117 C 
ENDROOT
BRANCH   1   2
ATOM      2  N   UNL     1       0.854   0.407  -0.445  1.00  0.00    -0.287 NA
BRANCH   2   3
ATOM      3  C   UNL     1      -0.505   0.714  -0.623  1.00  0.00     0.135 C 
ATOM      4  C   UNL     1      -2.004  -1.486  -0.626  1.00  0.00    -0.042 A 
ATOM      5  C   UNL     1      -2.896  -2.239   0.136  1.00  0.00     0.011 A 
ATOM      6  C   UNL     1      -1.466  -0.325  -0.121  1.00  0.00     0.025 A 
ATOM      7  C   UNL     1      -3.270  -1.854   1.413  1.00  0.00     0.090 A 
ATOM      8  C   UNL     1      -1.832   0.084   1.170  1.00  0.00     0.202 A 
ATOM      9  C   UNL     1      -2.730  -0.692   1.913  1.00  0.00     0.311 A 
ATOM     10  O   UNL     1      -1.160   1.290   1.460  1.00  0.00    -0.479 OA
ATOM     11  C   UNL     1      -1.014   1.893   0.164  1.00  0.00     0.124 C 
ATOM     12  C   UNL     1      -1.661  -1.961  -1.990  1.00  0.00     0.045 C 
ATOM     13  C   UNL     1      -0.211   3.120   0.133  1.00  0.00     0.058 C 
ATOM     14  C   UNL     1      -2.429   2.173  -0.301  1.00  0.00     0.058 C 
BRANCH   9  15
ATOM     15  N   UNL     1      -3.122  -0.306   3.226  1.00  0.00     0.066 N 
ATOM     16  O   UNL     1      -3.480  -1.117   4.084  1.00  0.00    -0.258 OA
ATOM     17  O   UNL     1      -3.101   1.046   3.554  1.00  0.00    -0.258 OA
ENDBRANCH   9  15
ENDBRANCH   2   3
BRANCH   2  18
ATOM     18  C   UNL     1       1.236  -0.704  -1.248  1.00  0.00     0.117 CG0
ATOM     19  G   UNL     1       2.775  -0.731  -1.217  1.00  0.00     0.000 G0
ENDBRANCH   2  18
ENDBRANCH   1   2
BRANCH   1  20
ATOM     20  C   UNL     1       2.730  -0.191   1.049  1.00  0.00     0.129 C 
ATOM     21  C   UNL     1       3.832   0.863   1.088  1.00  0.00     0.040 C 
BRANCH  20  22
ATOM     22  O   UNL     1       3.080  -1.096   0.066  1.00  0.00    -0.373 OA
BRANCH  22  23
ATOM     23  C   UNL     1       2.775  -0.731  -1.217  1.00  0.00     0.129 CG0
ATOM     24  C   UNL     1       3.336  -1.734  -2.173  1.00  0.00     0.040 C 
ATOM     25  G   UNL     1       1.236  -0.704  -1.248  1.00  0.00     0.000 G0
ENDBRANCH  22  23
ENDBRANCH  20  22
ENDBRANCH   1  20
TORSDOF 2
