REMARK SMILES CC(=O)N1C[C@@H]2OCC(=O)N(Cc3ccc(F)cc3)[C@@H]2C1
REMARK SMILES IDX 11 1 20 2 4 3 5 4 21 5 6 6 2 7 3 8 1 9 7 10 8 11 9 13 10 14
REMARK SMILES IDX 12 16 13 17 14 18 19 19 15 20 18 21 16 22 17 23
REMARK H PARENT
REMARK Flexibility Score:   19.900
ROOT
ATOM      1  N   UNL     1      -0.439  -0.173   0.716  1.00  0.00    -0.329 N 
ENDROOT
BRANCH   1   2
ATOM      2  C   UNL     1       0.499  -0.220  -0.392  1.00  0.00     0.135 C 
ATOM      3  N   UNL     1       2.827  -0.610  -0.156  1.00  0.00    -0.338 N 
ATOM      4  C   UNL     1       2.474   0.677   0.460  1.00  0.00     0.153 C 
ATOM      5  C   UNL     1       1.537  -1.306  -0.251  1.00  0.00     0.147 C 
ATOM      6  C   UNL     1       1.308   1.046  -0.441  1.00  0.00     0.162 C 
BRANCH   3   7
ATOM      7  C   UNL     1       4.102  -1.072  -0.562  1.00  0.00     0.219 C 
ATOM      8  O   UNL     1       4.255  -2.208  -1.081  1.00  0.00    -0.275 OA
ATOM      9  C   UNL     1       5.257  -0.164  -0.354  1.00  0.00     0.114 C 
ENDBRANCH   3   7
BRANCH   6  10
ATOM     10  O   UNL     1       0.643   2.161   0.026  1.00  0.00    -0.364 OA
BRANCH  10  11
ATOM     11  C   UNL     1       0.410   2.128   1.377  1.00  0.00     0.260 CG0
ATOM     12  G   UNL     1      -0.269   0.849   1.709  1.00  0.00     0.000 G0
ENDBRANCH  10  11
ENDBRANCH   6  10
ENDBRANCH   1   2
BRANCH   1  13
ATOM     13  C   UNL     1      -0.269   0.849   1.709  1.00  0.00     0.249 CG0
ATOM     14  O   UNL     1      -0.723   0.611   2.876  1.00  0.00    -0.272 OA
ATOM     15  G   UNL     1       0.410   2.128   1.377  1.00  0.00     0.000 G0
ENDBRANCH   1  13
BRANCH   1  16
ATOM     16  C   UNL     1      -1.530  -1.109   0.857  1.00  0.00     0.155 C 
BRANCH  16  17
ATOM     17  C   UNL     1      -2.764  -0.627   0.184  1.00  0.00    -0.028 A 
ATOM     18  C   UNL     1      -2.928  -0.991  -1.143  1.00  0.00     0.008 A 
ATOM     19  C   UNL     1      -3.716   0.137   0.798  1.00  0.00     0.008 A 
ATOM     20  C   UNL     1      -4.058  -0.576  -1.834  1.00  0.00     0.039 A 
ATOM     21  C   UNL     1      -4.856   0.572   0.148  1.00  0.00     0.039 A 
ATOM     22  C   UNL     1      -4.997   0.197  -1.173  1.00  0.00     0.123 A 
ATOM     23  F   UNL     1      -6.102   0.599  -1.859  1.00  0.00    -0.207 F 
ENDBRANCH  16  17
ENDBRANCH   1  16
TORSDOF 3
