REMARK SMILES COc1cc(N)c(Cl)cc1C(=O)NC[C@H]1CN(Cc2ccc(Br)cc2)CCO1
REMARK SMILES IDX 15 1 16 2 17 3 18 4 19 5 22 6 21 7 24 8 20 9 25 10 23 11
REMARK SMILES IDX 26 12 28 14 27 15 14 17 13 18 11 19 12 20 10 22 3 23 9 24
REMARK SMILES IDX 4 25 7 26 5 27 8 28 2 29 1 30 6 31
REMARK H PARENT 13 21 6 32 6 33
REMARK Flexibility Score:   79.900
ROOT
ATOM      1  C   UNL     1       0.450  -0.768   0.682  1.00  0.00     0.151 C 
ENDROOT
BRANCH   1   2
ATOM      2  C   UNL     1       1.676  -1.600   0.970  1.00  0.00     0.118 C 
BRANCH   2   3
ATOM      3  N   UNL     1       2.901  -0.868   0.719  1.00  0.00    -0.294 NA
BRANCH   3   4
ATOM      4  C   UNL     1       3.842  -1.574  -0.068  1.00  0.00     0.120 C 
BRANCH   4   5
ATOM      5  C   UNL     1       5.060  -0.771  -0.280  1.00  0.00    -0.034 A 
ATOM      6  C   UNL     1       7.428   0.707  -0.616  1.00  0.00     0.017 A 
ATOM      7  C   UNL     1       7.237  -0.116   0.479  1.00  0.00     0.016 A 
ATOM      8  C   UNL     1       6.420   0.789  -1.552  1.00  0.00     0.016 A 
ATOM      9  C   UNL     1       6.076  -0.847   0.654  1.00  0.00     0.006 A 
ATOM     10  C   UNL     1       5.274   0.055  -1.361  1.00  0.00     0.006 A 
ATOM     11  Br  UNL     1       9.024   1.721  -0.870  1.00  0.00    -0.051 Br
ENDBRANCH   4   5
ENDBRANCH   3   4
BRANCH   3  12
ATOM     12  C   UNL     1       2.678   0.502   0.410  1.00  0.00     0.113 CG0
ATOM     13  G   UNL     1       1.727   0.514  -0.787  1.00  0.00     0.000 G0
ENDBRANCH   3  12
ENDBRANCH   2   3
ENDBRANCH   1   2
BRANCH   1  14
ATOM     14  O   UNL     1       0.511  -0.035  -0.473  1.00  0.00    -0.374 OA
BRANCH  14  15
ATOM     15  C   UNL     1       1.727   0.514  -0.787  1.00  0.00     0.176 CG0
ATOM     16  G   UNL     1       2.678   0.502   0.410  1.00  0.00     0.000 G0
ENDBRANCH  14  15
ENDBRANCH   1  14
BRANCH   1  17
ATOM     17  C   UNL     1      -0.720  -1.725   0.580  1.00  0.00     0.149 C 
BRANCH  17  18
ATOM     18  N   UNL     1      -1.990  -1.060   0.402  1.00  0.00    -0.349 N 
ATOM     19  C   UNL     1      -2.536  -0.136   1.331  1.00  0.00     0.255 C 
ATOM     20  O   UNL     1      -1.887   0.116   2.356  1.00  0.00    -0.269 OA
ATOM     21  H   UNL     1      -2.576  -1.246  -0.455  1.00  0.00     0.163 HD
BRANCH  19  22
ATOM     22  C   UNL     1      -3.838   0.518   1.105  1.00  0.00     0.083 A 
ATOM     23  C   UNL     1      -4.602   0.280  -0.008  1.00  0.00     0.133 A 
ATOM     24  C   UNL     1      -4.317   1.402   2.035  1.00  0.00     0.040 A 
ATOM     25  C   UNL     1      -5.810   0.945  -0.126  1.00  0.00     0.074 A 
ATOM     26  C   UNL     1      -5.518   2.068   1.925  1.00  0.00     0.065 A 
ATOM     27  C   UNL     1      -6.279   1.832   0.818  1.00  0.00     0.054 A 
ATOM     28  Cl  UNL     1      -6.095   3.185   3.127  1.00  0.00    -0.082 Cl
BRANCH  23  29
ATOM     29  O   UNL     1      -4.167  -0.603  -0.979  1.00  0.00    -0.496 OA
ATOM     30  C   UNL     1      -4.975  -0.823  -2.106  1.00  0.00     0.278 C 
ENDBRANCH  23  29
BRANCH  27  31
ATOM     31  N   UNL     1      -7.531   2.476   0.625  1.00  0.00    -0.397 N 
ATOM     32  H   UNL     1      -8.300   2.436   1.353  1.00  0.00     0.156 HD
ATOM     33  H   UNL     1      -7.699   3.014  -0.273  1.00  0.00     0.156 HD
ENDBRANCH  27  31
ENDBRANCH  19  22
ENDBRANCH  17  18
ENDBRANCH   1  17
TORSDOF 7
