REMARK SMILES CC(C)CN(Cc1ccc2c(c1)OCCCO2)C(=O)[C@@H]1CN(Cc2ccccc2[N+](=O)[O-])CCO1
REMARK SMILES IDX 18 1 19 2 20 3 21 4 22 5 23 6 24 7 29 8 28 9 25 10 27 11
REMARK SMILES IDX 26 12 30 13 31 14 32 15 33 16 35 18 34 19 5 21 6 22 7 23
REMARK SMILES IDX 12 24 8 25 11 26 9 27 10 28 13 29 14 30 15 31 17 33 16 34
REMARK SMILES IDX 4 36 2 37 1 38 3 39
REMARK H PARENT
REMARK Flexibility Score:  160.800
ROOT
ATOM      1  C   UNL     1       0.571  -1.121  -1.331  1.00  0.00     0.253 C 
ATOM      2  O   UNL     1       0.912  -1.129  -2.591  1.00  0.00    -0.272 OA
ENDROOT
BRANCH   1   3
ATOM      3  C   UNL     1       1.540  -0.498  -0.454  1.00  0.00     0.221 C 
BRANCH   3   4
ATOM      4  C   UNL     1       2.973  -0.988  -0.757  1.00  0.00     0.127 C 
BRANCH   4   5
ATOM      5  N   UNL     1       3.832  -0.041  -0.069  1.00  0.00    -0.293 NA
BRANCH   5   6
ATOM      6  C   UNL     1       5.187  -0.037  -0.507  1.00  0.00     0.127 C 
BRANCH   6   7
ATOM      7  C   UNL     1       5.938   0.959   0.275  1.00  0.00     0.044 A 
ATOM      8  C   UNL     1       5.803   2.297   0.004  1.00  0.00     0.273 A 
ATOM      9  C   UNL     1       6.539   3.186   0.780  1.00  0.00     0.086 A 
ATOM     10  C   UNL     1       6.772   0.476   1.280  1.00  0.00     0.012 A 
ATOM     11  C   UNL     1       7.383   2.731   1.794  1.00  0.00     0.007 A 
ATOM     12  C   UNL     1       7.511   1.368   2.058  1.00  0.00     0.001 A 
BRANCH   8  13
ATOM     13  N   UNL     1       4.966   2.825  -1.012  1.00  0.00     0.063 N 
ATOM     14  O   UNL     1       5.271   3.928  -1.532  1.00  0.00    -0.258 OA
ATOM     15  O   UNL     1       3.836   2.221  -1.478  1.00  0.00    -0.258 OA
ENDBRANCH   8  13
ENDBRANCH   6   7
ENDBRANCH   5   6
BRANCH   5  16
ATOM     16  C   UNL     1       3.645  -0.157   1.360  1.00  0.00     0.113 CG0
ATOM     17  G   UNL     1       2.350  -0.843   1.710  1.00  0.00     0.000 G0
ENDBRANCH   5  16
ENDBRANCH   4   5
ENDBRANCH   3   4
BRANCH   3  18
ATOM     18  O   UNL     1       1.318  -0.567   0.870  1.00  0.00    -0.366 OA
BRANCH  18  19
ATOM     19  C   UNL     1       2.350  -0.843   1.710  1.00  0.00     0.177 CG0
ATOM     20  G   UNL     1       3.645  -0.157   1.360  1.00  0.00     0.000 G0
ENDBRANCH  18  19
ENDBRANCH   3  18
ENDBRANCH   1   3
BRANCH   1  21
ATOM     21  N   UNL     1      -0.694  -1.723  -0.987  1.00  0.00    -0.336 N 
BRANCH  21  22
ATOM     22  C   UNL     1      -1.262  -1.737   0.314  1.00  0.00     0.155 C 
BRANCH  22  23
ATOM     23  C   UNL     1      -2.211  -0.700   0.710  1.00  0.00    -0.025 A 
ATOM     24  C   UNL     1      -3.592  -0.938   0.705  1.00  0.00     0.056 A 
ATOM     25  C   UNL     1      -1.857   0.583   1.112  1.00  0.00     0.009 A 
ATOM     26  C   UNL     1      -4.529  -0.019   1.055  1.00  0.00     0.161 A 
ATOM     27  C   UNL     1      -2.821   1.530   1.473  1.00  0.00     0.051 A 
ATOM     28  C   UNL     1      -4.164   1.231   1.445  1.00  0.00     0.161 A 
BRANCH  26  29
ATOM     29  O   UNL     1      -5.839  -0.528   0.957  1.00  0.00    -0.490 OA
BRANCH  29  30
ATOM     30  C   UNL     1      -7.041  -0.010   1.511  1.00  0.00     0.233 C 
BRANCH  30  31
ATOM     31  C   UNL     1      -7.164   1.479   1.328  1.00  0.00     0.083 CG1
ATOM     32  G   UNL     1      -6.318   2.246   2.324  1.00  0.00     0.000 G1
ENDBRANCH  30  31
ENDBRANCH  29  30
ENDBRANCH  26  29
BRANCH  28  33
ATOM     33  O   UNL     1      -4.978   2.278   1.830  1.00  0.00    -0.490 OA
BRANCH  33  34
ATOM     34  C   UNL     1      -6.318   2.246   2.324  1.00  0.00     0.233 CG1
ATOM     35  G   UNL     1      -7.164   1.479   1.328  1.00  0.00     0.000 G1
ENDBRANCH  33  34
ENDBRANCH  28  33
ENDBRANCH  22  23
ENDBRANCH  21  22
BRANCH  21  36
ATOM     36  C   UNL     1      -1.313  -2.446  -2.110  1.00  0.00     0.123 C 
BRANCH  36  37
ATOM     37  C   UNL     1      -2.094  -1.652  -3.065  1.00  0.00     0.002 C 
ATOM     38  C   UNL     1      -3.283  -0.907  -2.561  1.00  0.00     0.009 C 
ATOM     39  C   UNL     1      -2.616  -2.622  -4.151  1.00  0.00     0.009 C 
ENDBRANCH  36  37
ENDBRANCH  21  36
ENDBRANCH   1  21
TORSDOF 9
