REMARK SMILES Cc1cc(C)n(C[C@H]2CN(Cc3ccc4c(c3)OCCO4)CCO2)n1
REMARK SMILES IDX 10 1 11 2 12 3 16 4 15 5 17 6 14 7 13 8 18 9 19 10 21 12
REMARK SMILES IDX 20 13 9 15 8 16 24 17 23 18 7 20 6 21 25 22 4 23 2 24 3 25
REMARK SMILES IDX 5 26 1 27 22 28
REMARK H PARENT
REMARK Flexibility Score:   63.800
ROOT
ATOM      1  N   UNL     1       0.531  -0.243  -0.823  1.00  0.00    -0.294 NA
ENDROOT
BRANCH   1   2
ATOM      2  C   UNL     1       1.361   0.894  -1.044  1.00  0.00     0.120 C 
BRANCH   2   3
ATOM      3  C   UNL     1       2.665   0.773  -0.390  1.00  0.00    -0.030 A 
ATOM      4  C   UNL     1       4.964   0.013  -0.539  1.00  0.00     0.161 A 
ATOM      5  C   UNL     1       5.253   0.471   0.733  1.00  0.00     0.161 A 
ATOM      6  C   UNL     1       3.710   0.159  -1.084  1.00  0.00     0.055 A 
ATOM      7  C   UNL     1       4.236   1.078   1.429  1.00  0.00     0.051 A 
ATOM      8  C   UNL     1       2.964   1.226   0.877  1.00  0.00     0.009 A 
BRANCH   4   9
ATOM      9  O   UNL     1       5.992  -0.602  -1.247  1.00  0.00    -0.486 OA
BRANCH   9  10
ATOM     10  C   UNL     1       7.142  -1.089  -0.571  1.00  0.00     0.271 CG0
ATOM     11  G   UNL     1       7.583  -0.118   0.508  1.00  0.00     0.000 G0
ENDBRANCH   9  10
ENDBRANCH   4   9
BRANCH   5  12
ATOM     12  O   UNL     1       6.509   0.338   1.309  1.00  0.00    -0.486 OA
BRANCH  12  13
ATOM     13  C   UNL     1       7.583  -0.118   0.508  1.00  0.00     0.271 CG0
ATOM     14  G   UNL     1       7.142  -1.089  -0.571  1.00  0.00     0.000 G0
ENDBRANCH  12  13
ENDBRANCH   5  12
ENDBRANCH   2   3
ENDBRANCH   1   2
BRANCH   1  15
ATOM     15  C   UNL     1      -0.757  -0.118  -1.476  1.00  0.00     0.119 C 
BRANCH  15  16
ATOM     16  C   UNL     1      -1.900  -0.428  -0.544  1.00  0.00     0.153 C 
BRANCH  16  17
ATOM     17  O   UNL     1      -1.829   0.272   0.647  1.00  0.00    -0.374 OA
BRANCH  17  18
ATOM     18  C   UNL     1      -0.574   0.259   1.224  1.00  0.00     0.176 CG1
ATOM     19  G   UNL     1       0.387  -0.670   0.527  1.00  0.00     0.000 G1
ENDBRANCH  17  18
ENDBRANCH  16  17
BRANCH  16  20
ATOM     20  C   UNL     1      -3.171   0.020  -1.239  1.00  0.00     0.177 C 
BRANCH  20  21
ATOM     21  N   UNL     1      -4.342  -0.235  -0.422  1.00  0.00    -0.267 N 
ATOM     22  N   UNL     1      -5.012  -1.377  -0.487  1.00  0.00    -0.178 NA
ATOM     23  C   UNL     1      -4.875   0.601   0.462  1.00  0.00     0.036 A 
ATOM     24  C   UNL     1      -6.019  -1.267   0.394  1.00  0.00     0.060 A 
ATOM     25  C   UNL     1      -5.976  -0.039   1.017  1.00  0.00     0.048 A 
ATOM     26  C   UNL     1      -4.443   1.962   0.838  1.00  0.00     0.066 C 
ATOM     27  C   UNL     1      -7.044  -2.318   0.668  1.00  0.00     0.069 C 
ENDBRANCH  20  21
ENDBRANCH  16  20
ENDBRANCH  15  16
ENDBRANCH   1  15
BRANCH   1  28
ATOM     28  C   UNL     1       0.387  -0.670   0.527  1.00  0.00     0.113 CG1
ATOM     29  G   UNL     1      -0.574   0.259   1.224  1.00  0.00     0.000 G1
ENDBRANCH   1  28
TORSDOF 4
