REMARK SMILES CS(=O)(=O)N[C@@H](c1ccc(CN2CCOC(c3ccc(F)cc3)C2)cc1)C(F)(F)F
REMARK SMILES IDX 11 1 10 2 7 3 8 4 26 5 9 6 25 7 6 8 5 9 2 11 3 12 4 13 1 14
REMARK SMILES IDX 27 15 28 16 29 17 30 18 12 19 24 20 16 21 15 22 14 23 17 25
REMARK SMILES IDX 18 26 23 27 19 28 22 29 20 30 21 31 13 32
REMARK H PARENT 5 10
REMARK Flexibility Score:   79.900
ROOT
ATOM      1  C   UNL     1      -0.699  -0.830  -1.369  1.00  0.00     0.120 C 
ENDROOT
BRANCH   1   2
ATOM      2  C   UNL     1       0.649  -0.555  -0.844  1.00  0.00    -0.034 A 
ATOM      3  C   UNL     1       3.231  -0.071   0.204  1.00  0.00    -0.021 A 
ATOM      4  C   UNL     1       2.722   0.688  -0.847  1.00  0.00     0.006 A 
ATOM      5  C   UNL     1       2.418  -1.072   0.712  1.00  0.00     0.006 A 
ATOM      6  C   UNL     1       1.463   0.454  -1.359  1.00  0.00     0.005 A 
ATOM      7  C   UNL     1       1.158  -1.311   0.203  1.00  0.00     0.005 A 
BRANCH   3   8
ATOM      8  C   UNL     1       4.591   0.200   0.740  1.00  0.00     0.205 C 
BRANCH   8   9
ATOM      9  N   UNL     1       5.316  -1.025   0.929  1.00  0.00    -0.199 NA
ATOM     10  H   UNL     1       4.690  -1.823   0.690  1.00  0.00     0.142 HD
BRANCH   9  11
ATOM     11  S   UNL     1       6.688  -1.061  -0.111  1.00  0.00     0.209 S 
ATOM     12  O   UNL     1       7.469  -2.330   0.081  1.00  0.00    -0.213 OA
ATOM     13  O   UNL     1       6.272  -0.973  -1.532  1.00  0.00    -0.213 OA
ATOM     14  C   UNL     1       7.757   0.308   0.323  1.00  0.00     0.176 C 
ENDBRANCH   9  11
ENDBRANCH   8   9
BRANCH   8  15
ATOM     15  C   UNL     1       4.498   1.025   2.012  1.00  0.00     0.408 C 
ATOM     16  F   UNL     1       3.798   2.189   1.793  1.00  0.00    -0.169 F 
ATOM     17  F   UNL     1       5.717   1.204   2.598  1.00  0.00    -0.169 F 
ATOM     18  F   UNL     1       3.733   0.269   2.912  1.00  0.00    -0.169 F 
ENDBRANCH   8  15
ENDBRANCH   3   8
ENDBRANCH   1   2
BRANCH   1  19
ATOM     19  N   UNL     1      -1.709  -0.078  -0.699  1.00  0.00    -0.294 NA
BRANCH  19  20
ATOM     20  C   UNL     1      -3.047  -0.294  -1.157  1.00  0.00     0.122 C 
BRANCH  20  21
ATOM     21  C   UNL     1      -3.974   0.577  -0.335  1.00  0.00     0.162 C 
BRANCH  21  22
ATOM     22  O   UNL     1      -3.357   0.880   0.879  1.00  0.00    -0.371 OA
BRANCH  22  23
ATOM     23  C   UNL     1      -2.354   1.814   0.608  1.00  0.00     0.176 CG0
ATOM     24  G   UNL     1      -1.421   1.306  -0.491  1.00  0.00     0.000 G0
ENDBRANCH  22  23
ENDBRANCH  21  22
BRANCH  21  25
ATOM     25  C   UNL     1      -5.298  -0.080  -0.124  1.00  0.00    -0.018 A 
ATOM     26  C   UNL     1      -5.355  -1.093   0.835  1.00  0.00     0.009 A 
ATOM     27  C   UNL     1      -6.418   0.298  -0.847  1.00  0.00     0.009 A 
ATOM     28  C   UNL     1      -6.571  -1.743   1.074  1.00  0.00     0.039 A 
ATOM     29  C   UNL     1      -7.615  -0.371  -0.583  1.00  0.00     0.039 A 
ATOM     30  C   UNL     1      -7.693  -1.375   0.361  1.00  0.00     0.123 A 
ATOM     31  F   UNL     1      -8.883  -2.006   0.590  1.00  0.00    -0.207 F 
ENDBRANCH  21  25
ENDBRANCH  20  21
ENDBRANCH  19  20
BRANCH  19  32
ATOM     32  C   UNL     1      -1.421   1.306  -0.491  1.00  0.00     0.113 CG0
ATOM     33  G   UNL     1      -2.354   1.814   0.608  1.00  0.00     0.000 G0
ENDBRANCH  19  32
ENDBRANCH   1  19
TORSDOF 7
