REMARK SMILES C[C@@H]1CN(Cc2ccc(NC(=O)/C=C/c3cnccc3-c3cnn(C)c3)cc2)C[C@H](C)O1
REMARK SMILES IDX 5 1 6 2 9 3 8 4 27 5 7 6 28 7 10 8 12 9 11 10 13 12 14 13
REMARK SMILES IDX 15 14 20 15 16 16 19 17 17 18 18 19 21 20 22 21 26 22 23 23
REMARK SMILES IDX 24 24 25 25 4 26 29 27 30 28 31 29 32 30 2 31 1 32 3 34
REMARK H PARENT 10 11
REMARK Flexibility Score:  201.900
ROOT
ATOM      1  C   UNL     1       4.330   1.380  -1.020  1.00  0.00     0.120 C 
ENDROOT
BRANCH   1   2
ATOM      2  C   UNL     1       2.941   0.904  -1.098  1.00  0.00    -0.034 A 
ATOM      3  C   UNL     1       0.264  -0.053  -1.279  1.00  0.00     0.041 A 
ATOM      4  C   UNL     1       1.312  -0.702  -1.880  1.00  0.00     0.026 A 
ATOM      5  C   UNL     1       0.606   1.109  -0.574  1.00  0.00     0.026 A 
ATOM      6  C   UNL     1       2.631  -0.241  -1.798  1.00  0.00     0.007 A 
ATOM      7  C   UNL     1       1.896   1.566  -0.489  1.00  0.00     0.007 A 
BRANCH   3   8
ATOM      8  N   UNL     1      -1.084  -0.451  -1.316  1.00  0.00    -0.323 N 
ATOM      9  O   UNL     1      -0.897  -2.348  -2.587  1.00  0.00    -0.270 OA
ATOM     10  C   UNL     1      -1.634  -1.567  -1.954  1.00  0.00     0.248 C 
ATOM     11  H   UNL     1      -1.768   0.175  -0.793  1.00  0.00     0.170 HD
BRANCH  10  12
ATOM     12  C   UNL     1      -3.071  -1.900  -1.935  1.00  0.00     0.072 C 
ATOM     13  C   UNL     1      -3.984  -1.201  -1.328  1.00  0.00     0.016 C 
BRANCH  13  14
ATOM     14  C   UNL     1      -5.412  -1.523  -1.302  1.00  0.00     0.001 A 
ATOM     15  C   UNL     1      -6.319  -0.700  -0.642  1.00  0.00    -0.005 A 
ATOM     16  C   UNL     1      -5.936  -2.647  -1.899  1.00  0.00     0.119 A 
ATOM     17  C   UNL     1      -7.680  -1.010  -0.597  1.00  0.00     0.029 A 
ATOM     18  N   UNL     1      -7.262  -2.950  -1.855  1.00  0.00    -0.264 NA
ATOM     19  C   UNL     1      -8.132  -2.152  -1.217  1.00  0.00     0.111 A 
BRANCH  15  20
ATOM     20  C   UNL     1      -5.930   0.535   0.019  1.00  0.00     0.020 A 
ATOM     21  C   UNL     1      -5.181   1.595  -0.421  1.00  0.00     0.143 A 
ATOM     22  C   UNL     1      -6.289   0.840   1.312  1.00  0.00     0.117 A 
ATOM     23  N   UNL     1      -5.100   2.498   0.581  1.00  0.00    -0.181 NA
ATOM     24  N   UNL     1      -5.769   2.038   1.621  1.00  0.00    -0.275 N 
ATOM     25  C   UNL     1      -5.940   2.691   2.913  1.00  0.00     0.173 C 
ENDBRANCH  15  20
ENDBRANCH  13  14
ENDBRANCH  10  12
ENDBRANCH   3   8
ENDBRANCH   1   2
BRANCH   1  26
ATOM     26  N   UNL     1       5.107   0.900   0.054  1.00  0.00    -0.294 NA
BRANCH  26  27
ATOM     27  C   UNL     1       4.650   1.183   1.358  1.00  0.00     0.116 C 
BRANCH  27  28
ATOM     28  C   UNL     1       5.417   0.577   2.471  1.00  0.00     0.129 C 
ATOM     29  C   UNL     1       6.602   1.462   2.847  1.00  0.00     0.040 C 
BRANCH  28  30
ATOM     30  O   UNL     1       5.801  -0.722   2.312  1.00  0.00    -0.373 OA
BRANCH  30  31
ATOM     31  C   UNL     1       5.655  -1.279   1.077  1.00  0.00     0.129 CG0
ATOM     32  C   UNL     1       6.648  -2.409   0.821  1.00  0.00     0.040 C 
ATOM     33  G   UNL     1       5.760  -0.341  -0.073  1.00  0.00     0.000 G0
ENDBRANCH  30  31
ENDBRANCH  28  30
ENDBRANCH  27  28
ENDBRANCH  26  27
BRANCH  26  34
ATOM     34  C   UNL     1       5.760  -0.341  -0.073  1.00  0.00     0.116 CG0
ATOM     35  G   UNL     1       5.655  -1.279   1.077  1.00  0.00     0.000 G0
ENDBRANCH  26  34
ENDBRANCH   1  26
TORSDOF 6
