REMARK SMILES CN(CCN1CC2CN(Cc3ccc(C#N)cc3F)CC(C1)O2)S(=O)(=O)c1ccc(C#N)cc1
REMARK SMILES IDX 7 1 6 3 5 4 4 5 3 6 2 7 1 8 24 9 25 10 26 11 27 12 28 13
REMARK SMILES IDX 34 14 29 15 33 16 30 17 31 18 32 19 22 20 23 22 21 23 20 25
REMARK SMILES IDX 9 26 8 27 10 29 11 30 18 31 12 32 17 33 13 34 14 35 15 36
REMARK SMILES IDX 16 37 19 38
REMARK H PARENT
REMARK Flexibility Score:  414.800
ROOT
ATOM      1  C   UNL     1      -1.572   1.126   0.217  1.00  0.00     0.146 CG1
ATOM      2  G   UNL     1      -2.860   0.314   0.062  1.00  0.00     0.000 G1
ENDROOT
BRANCH   1   3
ATOM      3  C   UNL     1      -0.311   0.286   0.412  1.00  0.00     0.118 C 
BRANCH   3   4
ATOM      4  N   UNL     1       0.637   0.277  -0.652  1.00  0.00    -0.297 NA
BRANCH   4   5
ATOM      5  C   UNL     1       1.836   0.981  -0.504  1.00  0.00     0.101 C 
BRANCH   5   6
ATOM      6  C   UNL     1       2.706   0.310   0.540  1.00  0.00     0.117 C 
BRANCH   6   7
ATOM      7  N   UNL     1       3.015  -1.024   0.159  1.00  0.00    -0.200 NA
ATOM      8  C   UNL     1       2.650  -2.061   1.060  1.00  0.00     0.124 C 
BRANCH   7   9
ATOM      9  S   UNL     1       4.436  -1.262  -0.725  1.00  0.00     0.242 S 
ATOM     10  O   UNL     1       4.367  -0.483  -2.011  1.00  0.00    -0.207 OA
ATOM     11  O   UNL     1       4.508  -2.714  -1.109  1.00  0.00    -0.207 OA
BRANCH   9  12
ATOM     12  C   UNL     1       5.872  -0.772   0.169  1.00  0.00     0.082 A 
ATOM     13  C   UNL     1       6.540  -1.660   1.010  1.00  0.00     0.023 A 
ATOM     14  C   UNL     1       6.314   0.535   0.001  1.00  0.00     0.023 A 
ATOM     15  C   UNL     1       7.671  -1.210   1.687  1.00  0.00     0.021 A 
ATOM     16  C   UNL     1       7.447   0.987   0.679  1.00  0.00     0.021 A 
ATOM     17  C   UNL     1       8.119   0.103   1.521  1.00  0.00     0.052 A 
ATOM     18  C   UNL     1       9.306   0.529   2.249  1.00  0.00     0.099 C 
ATOM     19  N   UNL     1      10.252   0.849   2.834  1.00  0.00    -0.192 NA
ENDBRANCH   9  12
ENDBRANCH   7   9
ENDBRANCH   6   7
ENDBRANCH   5   6
ENDBRANCH   4   5
BRANCH   4  20
ATOM     20  C   UNL     1       0.068   0.269  -2.021  1.00  0.00     0.118 CG0
ATOM     21  G   UNL     1      -1.311   0.326  -1.773  1.00  0.00     0.000 G0
ENDBRANCH   4  20
ENDBRANCH   3   4
ENDBRANCH   1   3
BRANCH   1  22
ATOM     22  O   UNL     1      -1.379   1.553  -1.091  1.00  0.00    -0.370 OA
BRANCH  22  23
ATOM     23  C   UNL     1      -1.311   0.326  -1.773  1.00  0.00     0.146 CG0
ATOM     24  G   UNL     1       0.068   0.269  -2.021  1.00  0.00     0.000 G0
BRANCH  23  25
ATOM     25  C   UNL     1      -2.601   0.312  -2.367  1.00  0.00     0.118 C 
BRANCH  25  26
ATOM     26  N   UNL     1      -3.495   0.479  -1.219  1.00  0.00    -0.294 NA
BRANCH  26  27
ATOM     27  C   UNL     1      -2.860   0.314   0.062  1.00  0.00     0.118 CG1
ATOM     28  G   UNL     1      -1.572   1.126   0.217  1.00  0.00     0.000 G1
ENDBRANCH  26  27
BRANCH  26  29
ATOM     29  C   UNL     1      -4.640  -0.305  -1.386  1.00  0.00     0.123 C 
BRANCH  29  30
ATOM     30  C   UNL     1      -5.800  -0.086  -0.540  1.00  0.00     0.002 A 
ATOM     31  C   UNL     1      -6.004  -0.543   0.736  1.00  0.00     0.129 A 
ATOM     32  C   UNL     1      -6.834   0.709  -1.067  1.00  0.00     0.009 A 
ATOM     33  C   UNL     1      -7.134  -0.261   1.484  1.00  0.00     0.059 A 
ATOM     34  C   UNL     1      -7.964   0.994  -0.323  1.00  0.00     0.020 A 
ATOM     35  C   UNL     1      -8.141   0.522   0.956  1.00  0.00     0.055 A 
ATOM     36  C   UNL     1      -9.297   0.804   1.744  1.00  0.00     0.099 C 
ATOM     37  N   UNL     1     -10.229   1.038   2.394  1.00  0.00    -0.192 NA
ATOM     38  F   UNL     1      -5.081  -1.338   1.327  1.00  0.00    -0.207 F 
ENDBRANCH  29  30
ENDBRANCH  26  29
ENDBRANCH  25  26
ENDBRANCH  23  25
ENDBRANCH  22  23
ENDBRANCH   1  22
TORSDOF 7
