REMARK SMILES NC(=O)c1cc(-c2cnn(CF)c2)c2ccc(CN3CCO[C@@H](C(F)(F)F)C3)cc2n1
REMARK SMILES IDX 19 1 28 2 23 3 24 4 25 5 26 6 27 7 22 8 21 9 18 11 17 12
REMARK SMILES IDX 29 13 16 14 30 15 15 16 31 17 14 18 4 19 6 20 5 21 2 22 3 23
REMARK SMILES IDX 1 24 7 27 8 28 13 29 9 30 10 31 11 32 12 33 20 34
REMARK H PARENT 1 25 1 26
REMARK Flexibility Score:   71.900
ROOT
ATOM      1  N   UNL     1       3.155  -0.343  -0.656  1.00  0.00    -0.294 NA
ENDROOT
BRANCH   1   2
ATOM      2  C   UNL     1       4.515  -0.570  -0.926  1.00  0.00     0.126 C 
BRANCH   2   3
ATOM      3  C   UNL     1       5.423   0.595  -0.758  1.00  0.00     0.237 C 
BRANCH   3   4
ATOM      4  C   UNL     1       6.868   0.196  -0.584  1.00  0.00     0.415 C 
ATOM      5  F   UNL     1       7.255  -0.543  -1.659  1.00  0.00    -0.168 F 
ATOM      6  F   UNL     1       7.101  -0.397   0.636  1.00  0.00    -0.168 F 
ATOM      7  F   UNL     1       7.618   1.379  -0.596  1.00  0.00    -0.168 F 
ENDBRANCH   3   4
BRANCH   3   8
ATOM      8  O   UNL     1       4.981   1.358   0.326  1.00  0.00    -0.366 OA
BRANCH   8   9
ATOM      9  C   UNL     1       3.792   1.972  -0.126  1.00  0.00     0.176 CG0
ATOM     10  G   UNL     1       2.709   0.942  -0.310  1.00  0.00     0.000 G0
ENDBRANCH   8   9
ENDBRANCH   3   8
ENDBRANCH   2   3
ENDBRANCH   1   2
BRANCH   1  11
ATOM     11  C   UNL     1       2.381  -1.460  -0.243  1.00  0.00     0.120 C 
BRANCH  11  12
ATOM     12  C   UNL     1       0.974  -1.137   0.017  1.00  0.00    -0.032 A 
ATOM     13  C   UNL     1       0.471  -0.740   1.238  1.00  0.00     0.034 A 
ATOM     14  C   UNL     1       0.049  -1.228  -1.026  1.00  0.00     0.006 A 
ATOM     15  C   UNL     1      -0.860  -0.444   1.448  1.00  0.00     0.072 A 
ATOM     16  C   UNL     1      -1.286  -0.939  -0.847  1.00  0.00     0.011 A 
ATOM     17  N   UNL     1      -1.304  -0.063   2.669  1.00  0.00    -0.243 NA
ATOM     18  C   UNL     1      -1.736  -0.546   0.394  1.00  0.00     0.008 A 
ATOM     19  C   UNL     1      -2.620   0.226   2.886  1.00  0.00     0.129 A 
ATOM     20  C   UNL     1      -3.070  -0.262   0.576  1.00  0.00    -0.003 A 
ATOM     21  C   UNL     1      -3.538   0.132   1.835  1.00  0.00     0.043 A 
BRANCH  19  22
ATOM     22  C   UNL     1      -3.100   0.637   4.205  1.00  0.00     0.267 C 
ATOM     23  O   UNL     1      -4.319   0.901   4.388  1.00  0.00    -0.268 OA
ATOM     24  N   UNL     1      -2.157   0.729   5.270  1.00  0.00    -0.364 N 
ATOM     25  H   UNL     1      -1.216   1.151   5.108  1.00  0.00     0.160 HD
ATOM     26  H   UNL     1      -2.353   0.392   6.229  1.00  0.00     0.160 HD
ENDBRANCH  19  22
BRANCH  20  27
ATOM     27  C   UNL     1      -4.068  -0.320  -0.480  1.00  0.00     0.021 A 
ATOM     28  C   UNL     1      -5.297  -0.987  -0.400  1.00  0.00     0.144 A 
ATOM     29  C   UNL     1      -4.071   0.242  -1.737  1.00  0.00     0.120 A 
ATOM     30  N   UNL     1      -5.965  -0.813  -1.556  1.00  0.00    -0.178 NA
ATOM     31  N   UNL     1      -5.231  -0.069  -2.374  1.00  0.00    -0.241 N 
BRANCH  31  32
ATOM     32  C   UNL     1      -5.656   0.308  -3.704  1.00  0.00     0.358 C 
ATOM     33  F   UNL     1      -5.253  -0.622  -4.614  1.00  0.00    -0.225 F 
ENDBRANCH  31  32
ENDBRANCH  20  27
ENDBRANCH  11  12
ENDBRANCH   1  11
BRANCH   1  34
ATOM     34  C   UNL     1       2.709   0.942  -0.310  1.00  0.00     0.113 CG0
ATOM     35  G   UNL     1       3.792   1.972  -0.126  1.00  0.00     0.000 G0
ENDBRANCH   1  34
TORSDOF 6
