REMARK SMILES N#Cc1ccc(CN2CC3CN(CCNS(=O)(=O)c4cccc(C#N)c4)CC(C2)O3)cc1
REMARK SMILES IDX 27 1 12 2 13 3 14 4 15 5 16 7 17 8 18 9 19 10 26 11 20 12
REMARK SMILES IDX 23 13 21 14 24 15 22 16 25 17 11 18 28 20 30 22 10 23 9 25
REMARK SMILES IDX 8 26 7 27 6 28 5 29 31 30 4 31 32 32 3 33 2 34 1 35 29 36
REMARK H PARENT 15 6
REMARK Flexibility Score:  352.800
ROOT
ATOM      1  C   UNL     1       0.324  -0.532  -0.809  1.00  0.00     0.118 C 
ENDROOT
BRANCH   1   2
ATOM      2  N   UNL     1       0.463  -0.287   0.648  1.00  0.00    -0.297 NA
BRANCH   2   3
ATOM      3  C   UNL     1       1.182  -1.336   1.277  1.00  0.00     0.101 C 
BRANCH   3   4
ATOM      4  C   UNL     1       2.703  -1.257   1.180  1.00  0.00     0.114 C 
BRANCH   4   5
ATOM      5  N   UNL     1       3.216  -0.126   1.826  1.00  0.00    -0.210 NA
ATOM      6  H   UNL     1       2.596   0.713   1.892  1.00  0.00     0.141 HD
BRANCH   5   7
ATOM      7  S   UNL     1       4.851   0.175   1.877  1.00  0.00     0.240 S 
ATOM      8  O   UNL     1       5.548  -1.075   2.483  1.00  0.00    -0.207 OA
ATOM      9  O   UNL     1       5.184   1.259   2.911  1.00  0.00    -0.207 OA
BRANCH   7  10
ATOM     10  C   UNL     1       5.671   0.472   0.402  1.00  0.00     0.083 A 
ATOM     11  C   UNL     1       6.915   1.143   0.528  1.00  0.00     0.041 A 
ATOM     12  C   UNL     1       5.304   0.187  -0.872  1.00  0.00     0.022 A 
ATOM     13  C   UNL     1       7.689   1.480  -0.541  1.00  0.00     0.053 A 
ATOM     14  C   UNL     1       6.087   0.528  -1.965  1.00  0.00     0.003 A 
ATOM     15  C   UNL     1       8.948   2.162  -0.307  1.00  0.00     0.099 C 
ATOM     16  C   UNL     1       7.288   1.177  -1.821  1.00  0.00     0.019 A 
ATOM     17  N   UNL     1       9.940   2.717  -0.107  1.00  0.00    -0.192 NA
ENDBRANCH   7  10
ENDBRANCH   5   7
ENDBRANCH   4   5
ENDBRANCH   3   4
ENDBRANCH   2   3
BRANCH   2  18
ATOM     18  C   UNL     1      -0.900  -0.321   1.211  1.00  0.00     0.118 CG0
ATOM     19  G   UNL     1      -1.586  -1.626   1.006  1.00  0.00     0.000 G0
ENDBRANCH   2  18
ENDBRANCH   1   2
BRANCH   1  20
ATOM     20  C   UNL     1      -0.810  -1.483  -1.092  1.00  0.00     0.146 CG1
ATOM     21  G   UNL     1      -2.029  -0.680  -1.491  1.00  0.00     0.000 G1
BRANCH  20  22
ATOM     22  O   UNL     1      -1.077  -2.359  -0.066  1.00  0.00    -0.370 OA
BRANCH  22  23
ATOM     23  C   UNL     1      -1.586  -1.626   1.006  1.00  0.00     0.146 CG0
ATOM     24  G   UNL     1      -0.900  -0.321   1.211  1.00  0.00     0.000 G0
BRANCH  23  25
ATOM     25  C   UNL     1      -3.051  -1.359   0.618  1.00  0.00     0.118 C 
BRANCH  25  26
ATOM     26  N   UNL     1      -3.166  -0.911  -0.710  1.00  0.00    -0.294 NA
BRANCH  26  27
ATOM     27  C   UNL     1      -4.443  -0.918  -1.297  1.00  0.00     0.120 C 
BRANCH  27  28
ATOM     28  C   UNL     1      -5.288   0.070  -0.545  1.00  0.00    -0.034 A 
ATOM     29  C   UNL     1      -5.947  -0.255   0.620  1.00  0.00     0.006 A 
ATOM     30  C   UNL     1      -5.420   1.356  -1.061  1.00  0.00     0.006 A 
ATOM     31  C   UNL     1      -6.735   0.690   1.277  1.00  0.00     0.020 A 
ATOM     32  C   UNL     1      -6.204   2.307  -0.414  1.00  0.00     0.020 A 
ATOM     33  C   UNL     1      -6.858   1.966   0.757  1.00  0.00     0.052 A 
ATOM     34  C   UNL     1      -7.649   2.993   1.386  1.00  0.00     0.099 C 
ATOM     35  N   UNL     1      -8.295   3.804   1.894  1.00  0.00    -0.192 NA
ENDBRANCH  27  28
ENDBRANCH  26  27
BRANCH  26  36
ATOM     36  C   UNL     1      -2.029  -0.680  -1.491  1.00  0.00     0.118 CG1
ATOM     37  G   UNL     1      -0.810  -1.483  -1.092  1.00  0.00     0.000 G1
ENDBRANCH  26  36
ENDBRANCH  25  26
ENDBRANCH  23  25
ENDBRANCH  22  23
ENDBRANCH  20  22
ENDBRANCH   1  20
TORSDOF 7
