REMARK SMILES O=S(=O)(NCCN1CC2CN(Cc3ccccc3)CC(C1)O2)c1ccc(F)cc1
REMARK SMILES IDX 21 1 7 2 6 3 5 4 4 5 2 7 1 8 3 9 23 10 24 11 29 12 25 13
REMARK SMILES IDX 28 14 26 15 27 16 8 17 20 19 22 21 9 22 10 24 11 25 12 26
REMARK SMILES IDX 13 27 14 28 18 29 15 30 17 31 16 32 19 33
REMARK H PARENT 4 6
REMARK Flexibility Score:  254.800
ROOT
ATOM      1  C   UNL     1      -0.411   0.535   0.878  1.00  0.00     0.118 C 
ENDROOT
BRANCH   1   2
ATOM      2  N   UNL     1      -0.744   1.768   1.576  1.00  0.00    -0.297 NA
BRANCH   2   3
ATOM      3  C   UNL     1      -1.694   2.589   0.908  1.00  0.00     0.101 C 
BRANCH   3   4
ATOM      4  C   UNL     1      -2.981   1.942   0.529  1.00  0.00     0.114 C 
BRANCH   4   5
ATOM      5  N   UNL     1      -3.724   1.418   1.661  1.00  0.00    -0.210 NA
ATOM      6  H   UNL     1      -3.221   0.724   2.226  1.00  0.00     0.141 HD
BRANCH   5   7
ATOM      7  S   UNL     1      -5.191   0.694   1.107  1.00  0.00     0.240 S 
ATOM      8  O   UNL     1      -5.909   1.777   0.313  1.00  0.00    -0.207 OA
ATOM      9  O   UNL     1      -6.047   0.350   2.275  1.00  0.00    -0.207 OA
BRANCH   7  10
ATOM     10  C   UNL     1      -4.916  -0.650   0.031  1.00  0.00     0.082 A 
ATOM     11  C   UNL     1      -4.803  -1.910   0.629  1.00  0.00     0.025 A 
ATOM     12  C   UNL     1      -4.808  -0.518  -1.338  1.00  0.00     0.025 A 
ATOM     13  C   UNL     1      -4.585  -3.003  -0.185  1.00  0.00     0.040 A 
ATOM     14  C   UNL     1      -4.589  -1.616  -2.154  1.00  0.00     0.040 A 
ATOM     15  C   UNL     1      -4.482  -2.840  -1.551  1.00  0.00     0.123 A 
ATOM     16  F   UNL     1      -4.265  -3.977  -2.278  1.00  0.00    -0.207 F 
ENDBRANCH   7  10
ENDBRANCH   5   7
ENDBRANCH   4   5
ENDBRANCH   3   4
ENDBRANCH   2   3
BRANCH   2  17
ATOM     17  C   UNL     1       0.429   2.643   1.837  1.00  0.00     0.118 CG0
ATOM     18  G   UNL     1       1.458   2.016   1.102  1.00  0.00     0.000 G0
ENDBRANCH   2  17
ENDBRANCH   1   2
BRANCH   1  19
ATOM     19  C   UNL     1       0.526   0.679  -0.310  1.00  0.00     0.146 CG1
ATOM     20  G   UNL     1       1.885   0.011  -0.143  1.00  0.00     0.000 G1
BRANCH  19  21
ATOM     21  O   UNL     1       0.879   2.020  -0.179  1.00  0.00    -0.370 OA
BRANCH  21  22
ATOM     22  C   UNL     1       1.458   2.016   1.102  1.00  0.00     0.146 CG0
ATOM     23  G   UNL     1       0.429   2.643   1.837  1.00  0.00     0.000 G0
BRANCH  22  24
ATOM     24  C   UNL     1       2.821   2.097   0.758  1.00  0.00     0.118 C 
BRANCH  24  25
ATOM     25  N   UNL     1       3.005   0.935  -0.153  1.00  0.00    -0.294 NA
BRANCH  25  26
ATOM     26  C   UNL     1       4.174   0.217   0.296  1.00  0.00     0.120 C 
BRANCH  26  27
ATOM     27  C   UNL     1       4.540  -0.945  -0.516  1.00  0.00    -0.034 A 
ATOM     28  C   UNL     1       5.384  -0.720  -1.609  1.00  0.00     0.005 A 
ATOM     29  C   UNL     1       4.132  -2.239  -0.292  1.00  0.00     0.005 A 
ATOM     30  C   UNL     1       5.793  -1.748  -2.433  1.00  0.00     0.000 A 
ATOM     31  C   UNL     1       4.544  -3.284  -1.124  1.00  0.00     0.000 A 
ATOM     32  C   UNL     1       5.378  -3.038  -2.199  1.00  0.00     0.000 A 
ENDBRANCH  26  27
ENDBRANCH  25  26
BRANCH  25  33
ATOM     33  C   UNL     1       1.885   0.011  -0.143  1.00  0.00     0.118 CG1
ATOM     34  G   UNL     1       0.526   0.679  -0.310  1.00  0.00     0.000 G1
ENDBRANCH  25  33
ENDBRANCH  24  25
ENDBRANCH  22  24
ENDBRANCH  21  22
ENDBRANCH  19  21
ENDBRANCH   1  19
TORSDOF 7
