REMARK SMILES C[C@H]1CN(Cc2cccc(-c3nc(-c4cccc(C(F)(F)F)c4)c[nH]3)c2)CCO1
REMARK SMILES IDX 5 1 6 2 10 3 26 4 9 5 8 6 7 7 11 8 13 9 12 10 24 11 25 12
REMARK SMILES IDX 14 14 18 15 23 16 17 17 16 18 15 19 19 20 20 21 21 22 22 23
REMARK SMILES IDX 4 24 3 25 2 26 1 27 29 28 28 29 27 31
REMARK H PARENT 25 13
REMARK Flexibility Score:   65.900
ROOT
ATOM      1  C   UNL     1      -2.809   0.140  -1.186  1.00  0.00     0.120 C 
ENDROOT
BRANCH   1   2
ATOM      2  C   UNL     1      -1.923  -1.046  -1.068  1.00  0.00    -0.033 A 
ATOM      3  C   UNL     1       0.285  -1.939  -0.617  1.00  0.00     0.017 A 
ATOM      4  C   UNL     1      -0.587  -0.875  -0.739  1.00  0.00     0.017 A 
ATOM      5  C   UNL     1      -0.155  -3.231  -0.822  1.00  0.00     0.012 A 
ATOM      6  C   UNL     1      -1.486  -3.416  -1.151  1.00  0.00     0.001 A 
ATOM      7  C   UNL     1      -2.353  -2.340  -1.271  1.00  0.00     0.005 A 
BRANCH   3   8
ATOM      8  C   UNL     1       1.695  -1.706  -0.265  1.00  0.00     0.138 A 
ATOM      9  C   UNL     1       3.544  -0.634   0.256  1.00  0.00     0.089 A 
ATOM     10  N   UNL     1       2.256  -0.521  -0.039  1.00  0.00    -0.229 NA
ATOM     11  C   UNL     1       3.834  -2.002   0.217  1.00  0.00     0.113 A 
ATOM     12  N   UNL     1       2.672  -2.628  -0.107  1.00  0.00    -0.344 N 
ATOM     13  H   UNL     1       2.568  -3.672  -0.214  1.00  0.00     0.168 HD
BRANCH   9  14
ATOM     14  C   UNL     1       4.517   0.409   0.568  1.00  0.00     0.002 A 
ATOM     15  C   UNL     1       6.671   1.191   1.138  1.00  0.00     0.056 A 
ATOM     16  C   UNL     1       5.837   0.126   0.858  1.00  0.00     0.023 A 
ATOM     17  C   UNL     1       6.235   2.503   1.139  1.00  0.00     0.013 A 
ATOM     18  C   UNL     1       4.901   2.777   0.846  1.00  0.00     0.001 A 
ATOM     19  C   UNL     1       4.055   1.725   0.563  1.00  0.00     0.010 A 
BRANCH  15  20
ATOM     20  C   UNL     1       8.106   0.946   1.458  1.00  0.00     0.416 C 
ATOM     21  F   UNL     1       8.262  -0.277   2.063  1.00  0.00    -0.166 F 
ATOM     22  F   UNL     1       8.817   0.916   0.270  1.00  0.00    -0.166 F 
ATOM     23  F   UNL     1       8.584   1.976   2.242  1.00  0.00    -0.166 F 
ENDBRANCH  15  20
ENDBRANCH   9  14
ENDBRANCH   3   8
ENDBRANCH   1   2
BRANCH   1  24
ATOM     24  N   UNL     1      -3.428   0.483   0.079  1.00  0.00    -0.294 NA
BRANCH  24  25
ATOM     25  C   UNL     1      -4.256   1.648  -0.123  1.00  0.00     0.116 C 
BRANCH  25  26
ATOM     26  C   UNL     1      -5.694   1.188  -0.242  1.00  0.00     0.129 C 
ATOM     27  C   UNL     1      -6.536   2.382  -0.705  1.00  0.00     0.040 C 
BRANCH  26  28
ATOM     28  O   UNL     1      -6.131   0.777   1.007  1.00  0.00    -0.376 OA
BRANCH  28  29
ATOM     29  C   UNL     1      -5.219  -0.045   1.643  1.00  0.00     0.176 CG0
ATOM     30  G   UNL     1      -4.182  -0.586   0.654  1.00  0.00     0.000 G0
ENDBRANCH  28  29
ENDBRANCH  26  28
ENDBRANCH  25  26
ENDBRANCH  24  25
BRANCH  24  31
ATOM     31  C   UNL     1      -4.182  -0.586   0.654  1.00  0.00     0.113 CG0
ATOM     32  G   UNL     1      -5.219  -0.045   1.643  1.00  0.00     0.000 G0
ENDBRANCH  24  31
ENDBRANCH   1  24
TORSDOF 5
