REMARK SMILES CCn1cc(-c2nc3cc(Br)c(C(=O)N4CCO[C@@H](c5ccc(F)cc5)[C@@H]4CO)cc3n2C)c2ccc(C#N)cc21
REMARK SMILES IDX 13 1 14 2 12 3 10 4 9 5 30 6 8 7 31 8 7 9 32 10 6 11 11 12
REMARK SMILES IDX 33 13 5 14 34 15 4 16 41 17 35 18 3 19 40 20 36 21 37 22
REMARK SMILES IDX 38 23 39 24 2 25 1 26 15 27 27 28 19 29 18 30 17 31 20 33
REMARK SMILES IDX 21 34 26 35 22 36 25 37 23 38 24 39 28 40 29 41 16 43
REMARK H PARENT 29 42
REMARK Flexibility Score:   79.900
ROOT
ATOM      1  C   UNL     1      -2.579   0.703   0.828  1.00  0.00     0.255 C 
ATOM      2  O   UNL     1      -3.018   1.718   1.427  1.00  0.00    -0.269 OA
ENDROOT
BRANCH   1   3
ATOM      3  C   UNL     1      -1.190   0.286   0.990  1.00  0.00     0.056 A 
ATOM      4  C   UNL     1      -0.824  -0.600   1.997  1.00  0.00     0.033 A 
ATOM      5  C   UNL     1       0.507  -0.937   2.075  1.00  0.00     0.047 A 
ATOM      6  C   UNL     1      -0.246   0.794   0.119  1.00  0.00     0.043 A 
ATOM      7  C   UNL     1       1.452  -0.435   1.209  1.00  0.00     0.090 A 
ATOM      8  C   UNL     1       1.082   0.436   0.223  1.00  0.00     0.069 A 
ATOM      9  N   UNL     1       2.761  -0.613   1.094  1.00  0.00    -0.228 NA
ATOM     10  N   UNL     1       2.215   0.750  -0.457  1.00  0.00    -0.327 N 
ATOM     11  C   UNL     1       3.270   0.110   0.066  1.00  0.00     0.143 A 
ATOM     12  Br  UNL     1      -2.149  -1.274   3.174  1.00  0.00    -0.050 Br
ATOM     13  C   UNL     1       2.246   1.654  -1.588  1.00  0.00     0.152 C 
BRANCH  11  14
ATOM     14  C   UNL     1       4.673   0.124  -0.310  1.00  0.00     0.043 A 
ATOM     15  C   UNL     1       5.676  -0.602   0.332  1.00  0.00     0.011 A 
ATOM     16  C   UNL     1       5.329   0.798  -1.313  1.00  0.00     0.098 A 
ATOM     17  C   UNL     1       6.883  -0.350  -0.290  1.00  0.00     0.050 A 
ATOM     18  C   UNL     1       5.648  -1.472   1.416  1.00  0.00     0.012 A 
ATOM     19  N   UNL     1       6.650   0.512  -1.297  1.00  0.00    -0.347 N 
ATOM     20  C   UNL     1       8.042  -0.954   0.162  1.00  0.00     0.046 A 
ATOM     21  C   UNL     1       6.809  -2.074   1.865  1.00  0.00     0.020 A 
ATOM     22  C   UNL     1       8.017  -1.819   1.239  1.00  0.00     0.054 A 
ATOM     23  C   UNL     1       9.200  -2.464   1.735  1.00  0.00     0.099 C 
ATOM     24  N   UNL     1      10.160  -2.988   2.125  1.00  0.00    -0.192 NA
BRANCH  19  25
ATOM     25  C   UNL     1       7.654   1.047  -2.217  1.00  0.00     0.119 C 
ATOM     26  C   UNL     1       8.228   2.338  -1.639  1.00  0.00     0.027 C 
ENDBRANCH  19  25
ENDBRANCH  11  14
ENDBRANCH   1   3
BRANCH   1  27
ATOM     27  N   UNL     1      -3.484  -0.022  -0.011  1.00  0.00    -0.328 N 
BRANCH  27  28
ATOM     28  C   UNL     1      -4.838   0.491  -0.090  1.00  0.00     0.144 C 
BRANCH  28  29
ATOM     29  C   UNL     1      -5.743  -0.697  -0.397  1.00  0.00     0.173 C 
BRANCH  29  30
ATOM     30  O   UNL     1      -5.196  -1.866   0.168  1.00  0.00    -0.369 OA
BRANCH  30  31
ATOM     31  C   UNL     1      -4.095  -2.272  -0.545  1.00  0.00     0.182 CG0
ATOM     32  G   UNL     1      -3.042  -1.201  -0.730  1.00  0.00     0.000 G0
ENDBRANCH  30  31
ENDBRANCH  29  30
BRANCH  29  33
ATOM     33  C   UNL     1      -7.047  -0.438   0.284  1.00  0.00    -0.017 A 
ATOM     34  C   UNL     1      -8.192  -0.093  -0.402  1.00  0.00     0.009 A 
ATOM     35  C   UNL     1      -7.093  -0.551   1.659  1.00  0.00     0.009 A 
ATOM     36  C   UNL     1      -9.365   0.135   0.270  1.00  0.00     0.039 A 
ATOM     37  C   UNL     1      -8.256  -0.329   2.369  1.00  0.00     0.039 A 
ATOM     38  C   UNL     1      -9.405   0.018   1.659  1.00  0.00     0.123 A 
ATOM     39  F   UNL     1     -10.573   0.246   2.325  1.00  0.00    -0.207 F 
ENDBRANCH  29  33
ENDBRANCH  28  29
BRANCH  28  40
ATOM     40  C   UNL     1      -4.937   1.430  -1.275  1.00  0.00     0.184 C 
BRANCH  40  41
ATOM     41  O   UNL     1      -6.239   1.956  -1.393  1.00  0.00    -0.394 OA
ATOM     42  H   UNL     1      -6.185   2.878  -1.798  1.00  0.00     0.210 HD
ENDBRANCH  40  41
ENDBRANCH  28  40
ENDBRANCH  27  28
BRANCH  27  43
ATOM     43  C   UNL     1      -3.042  -1.201  -0.730  1.00  0.00     0.149 CG0
ATOM     44  G   UNL     1      -4.095  -2.272  -0.545  1.00  0.00     0.000 G0
ENDBRANCH  27  43
ENDBRANCH   1  27
TORSDOF 7
