REMARK SMILES C[C@@H](NS(C)(=O)=O)c1ccc(CN2CCO[C@@H](c3ccccc3)C2)cc1
REMARK SMILES IDX 12 1 11 2 8 3 9 4 26 5 10 6 25 7 2 8 1 9 3 10 4 12 6 13 7 14
REMARK SMILES IDX 5 15 13 16 24 17 17 18 16 19 15 20 18 22 19 23 23 24 20 25
REMARK SMILES IDX 22 26 21 27 14 28
REMARK H PARENT 3 11
REMARK Flexibility Score:   79.900
ROOT
ATOM      1  C   UNL     1       0.852   0.709  -1.744  1.00  0.00     0.120 C 
ENDROOT
BRANCH   1   2
ATOM      2  C   UNL     1      -0.509   0.263  -1.358  1.00  0.00    -0.034 A 
ATOM      3  C   UNL     1      -3.075  -0.417  -0.516  1.00  0.00    -0.030 A 
ATOM      4  C   UNL     1      -2.456   0.722  -0.036  1.00  0.00     0.006 A 
ATOM      5  C   UNL     1      -2.374  -1.183  -1.413  1.00  0.00     0.006 A 
ATOM      6  C   UNL     1      -1.181   1.077  -0.442  1.00  0.00     0.005 A 
ATOM      7  C   UNL     1      -1.103  -0.881  -1.854  1.00  0.00     0.005 A 
BRANCH   3   8
ATOM      8  C   UNL     1      -4.458  -0.781  -0.060  1.00  0.00     0.096 C 
ATOM      9  C   UNL     1      -4.709  -2.229  -0.486  1.00  0.00     0.031 C 
BRANCH   8  10
ATOM     10  N   UNL     1      -4.626  -0.650   1.357  1.00  0.00    -0.208 NA
ATOM     11  H   UNL     1      -4.742  -1.551   1.867  1.00  0.00     0.141 HD
BRANCH  10  12
ATOM     12  S   UNL     1      -5.928   0.357   1.805  1.00  0.00     0.209 S 
ATOM     13  O   UNL     1      -5.955   0.435   3.306  1.00  0.00    -0.213 OA
ATOM     14  O   UNL     1      -7.265  -0.165   1.378  1.00  0.00    -0.213 OA
ATOM     15  C   UNL     1      -5.708   2.020   1.219  1.00  0.00     0.176 C 
ENDBRANCH  10  12
ENDBRANCH   8  10
ENDBRANCH   3   8
ENDBRANCH   1   2
BRANCH   1  16
ATOM     16  N   UNL     1       1.906   0.217  -0.940  1.00  0.00    -0.294 NA
BRANCH  16  17
ATOM     17  C   UNL     1       1.863   0.553   0.442  1.00  0.00     0.122 C 
BRANCH  17  18
ATOM     18  C   UNL     1       3.004  -0.127   1.147  1.00  0.00     0.162 C 
BRANCH  18  19
ATOM     19  O   UNL     1       2.987  -1.493   1.041  1.00  0.00    -0.371 OA
BRANCH  19  20
ATOM     20  C   UNL     1       2.657  -2.016  -0.177  1.00  0.00     0.176 CG0
ATOM     21  G   UNL     1       2.479  -1.032  -1.283  1.00  0.00     0.000 G0
ENDBRANCH  19  20
ENDBRANCH  18  19
BRANCH  18  22
ATOM     22  C   UNL     1       4.327   0.427   0.758  1.00  0.00    -0.018 A 
ATOM     23  C   UNL     1       5.441  -0.214   1.261  1.00  0.00     0.006 A 
ATOM     24  C   UNL     1       4.475   1.526  -0.062  1.00  0.00     0.006 A 
ATOM     25  C   UNL     1       6.679   0.283   0.913  1.00  0.00     0.000 A 
ATOM     26  C   UNL     1       5.719   2.027  -0.413  1.00  0.00     0.000 A 
ATOM     27  C   UNL     1       6.830   1.382   0.093  1.00  0.00     0.000 A 
ENDBRANCH  18  22
ENDBRANCH  17  18
ENDBRANCH  16  17
BRANCH  16  28
ATOM     28  C   UNL     1       2.479  -1.032  -1.283  1.00  0.00     0.113 CG0
ATOM     29  G   UNL     1       2.657  -2.016  -0.177  1.00  0.00     0.000 G0
ENDBRANCH  16  28
ENDBRANCH   1  16
TORSDOF 6
