REMARK SMILES N#Cc1ccc(S(=O)(=O)NCCN2CC3CN(Cc4ccc(F)cc4)CC(C2)O3)cc1
REMARK SMILES IDX 15 1 14 3 13 4 12 5 11 6 10 7 7 9 8 10 9 11 6 12 5 13 30 14
REMARK SMILES IDX 4 15 31 16 3 17 2 18 1 19 28 20 29 22 27 23 26 25 17 26
REMARK SMILES IDX 16 27 18 29 19 30 20 31 25 32 21 33 24 34 22 35 23 36
REMARK H PARENT 10 8
REMARK Flexibility Score:  414.800
ROOT
ATOM      1  C   UNL     1       0.738  -1.565  -0.016  1.00  0.00     0.146 CG1
ATOM      2  G   UNL     1       1.875  -1.394  -0.956  1.00  0.00     0.000 G1
ENDROOT
BRANCH   1   3
ATOM      3  C   UNL     1      -0.396  -0.696  -0.513  1.00  0.00     0.118 C 
BRANCH   3   4
ATOM      4  N   UNL     1      -0.209   0.655  -0.182  1.00  0.00    -0.297 NA
BRANCH   4   5
ATOM      5  C   UNL     1      -1.258   1.547  -0.470  1.00  0.00     0.101 C 
BRANCH   5   6
ATOM      6  C   UNL     1      -2.520   1.364   0.355  1.00  0.00     0.114 C 
BRANCH   6   7
ATOM      7  N   UNL     1      -3.435   2.385  -0.120  1.00  0.00    -0.210 NA
ATOM      8  H   UNL     1      -3.522   2.390  -1.138  1.00  0.00     0.141 HD
BRANCH   7   9
ATOM      9  S   UNL     1      -4.939   2.345   0.696  1.00  0.00     0.240 S 
ATOM     10  O   UNL     1      -5.823   3.428   0.106  1.00  0.00    -0.207 OA
ATOM     11  O   UNL     1      -4.811   2.619   2.150  1.00  0.00    -0.207 OA
BRANCH   9  12
ATOM     12  C   UNL     1      -5.675   0.786   0.383  1.00  0.00     0.082 A 
ATOM     13  C   UNL     1      -6.493   0.684  -0.736  1.00  0.00     0.023 A 
ATOM     14  C   UNL     1      -5.474  -0.312   1.190  1.00  0.00     0.023 A 
ATOM     15  C   UNL     1      -7.128  -0.491  -1.085  1.00  0.00     0.021 A 
ATOM     16  C   UNL     1      -6.110  -1.488   0.841  1.00  0.00     0.021 A 
ATOM     17  C   UNL     1      -6.924  -1.587  -0.274  1.00  0.00     0.052 A 
ATOM     18  C   UNL     1      -7.589  -2.805  -0.645  1.00  0.00     0.099 C 
ATOM     19  N   UNL     1      -8.136  -3.784  -0.940  1.00  0.00    -0.192 NA
ENDBRANCH   9  12
ENDBRANCH   7   9
ENDBRANCH   6   7
ENDBRANCH   5   6
ENDBRANCH   4   5
BRANCH   4  20
ATOM     20  C   UNL     1       0.862   1.061   0.613  1.00  0.00     0.118 CG0
ATOM     21  G   UNL     1       1.584  -0.010   1.370  1.00  0.00     0.000 G0
ENDBRANCH   4  20
ENDBRANCH   3   4
ENDBRANCH   1   3
BRANCH   1  22
ATOM     22  O   UNL     1       0.967  -1.250   1.296  1.00  0.00    -0.370 OA
BRANCH  22  23
ATOM     23  C   UNL     1       1.584  -0.010   1.370  1.00  0.00     0.146 CG0
ATOM     24  G   UNL     1       0.862   1.061   0.613  1.00  0.00     0.000 G0
BRANCH  23  25
ATOM     25  C   UNL     1       2.994  -0.210   0.847  1.00  0.00     0.118 C 
BRANCH  25  26
ATOM     26  N   UNL     1       3.030  -0.727  -0.474  1.00  0.00    -0.294 NA
BRANCH  26  27
ATOM     27  C   UNL     1       1.875  -1.394  -0.956  1.00  0.00     0.118 CG1
ATOM     28  G   UNL     1       0.738  -1.565  -0.016  1.00  0.00     0.000 G1
ENDBRANCH  26  27
BRANCH  26  29
ATOM     29  C   UNL     1       4.265  -1.289  -0.908  1.00  0.00     0.120 C 
BRANCH  29  30
ATOM     30  C   UNL     1       5.473  -0.617  -0.422  1.00  0.00    -0.034 A 
ATOM     31  C   UNL     1       5.989   0.425  -1.187  1.00  0.00     0.008 A 
ATOM     32  C   UNL     1       6.150  -0.926   0.730  1.00  0.00     0.008 A 
ATOM     33  C   UNL     1       7.132   1.098  -0.781  1.00  0.00     0.039 A 
ATOM     34  C   UNL     1       7.293  -0.255   1.141  1.00  0.00     0.039 A 
ATOM     35  C   UNL     1       7.804   0.770   0.390  1.00  0.00     0.123 A 
ATOM     36  F   UNL     1       8.913   1.451   0.749  1.00  0.00    -0.207 F 
ENDBRANCH  29  30
ENDBRANCH  26  29
ENDBRANCH  25  26
ENDBRANCH  23  25
ENDBRANCH  22  23
ENDBRANCH   1  22
TORSDOF 7
