REMARK SMILES Cc1cc(C)n(C[C@H]2CN(Cc3cccc(C#N)c3)CCO2)n1
REMARK SMILES IDX 8 1 22 2 21 3 9 5 10 6 11 7 12 8 19 9 13 10 16 11 14 12
REMARK SMILES IDX 17 13 15 14 18 15 20 16 7 18 6 19 23 20 4 21 2 22 3 23 5 24
REMARK SMILES IDX 1 25
REMARK H PARENT
REMARK Flexibility Score:  111.900
ROOT
ATOM      1  C   UNL     1       0.622  -0.144   0.293  1.00  0.00     0.153 C 
ENDROOT
BRANCH   1   2
ATOM      2  O   UNL     1       1.055  -1.392   0.664  1.00  0.00    -0.374 OA
BRANCH   2   3
ATOM      3  C   UNL     1       0.782  -2.368  -0.292  1.00  0.00     0.176 CG0
ATOM      4  G   UNL     1      -0.698  -2.560  -0.301  1.00  0.00     0.000 G0
ENDBRANCH   2   3
ENDBRANCH   1   2
BRANCH   1   5
ATOM      5  C   UNL     1      -0.811  -0.142  -0.094  1.00  0.00     0.119 C 
BRANCH   5   6
ATOM      6  N   UNL     1      -1.478  -1.386  -0.155  1.00  0.00    -0.294 NA
BRANCH   6   7
ATOM      7  C   UNL     1      -2.684  -1.373  -0.950  1.00  0.00     0.120 C 
BRANCH   7   8
ATOM      8  C   UNL     1      -3.660  -0.400  -0.394  1.00  0.00    -0.033 A 
ATOM      9  C   UNL     1      -3.718   0.921  -0.771  1.00  0.00     0.024 A 
ATOM     10  C   UNL     1      -4.548  -0.887   0.557  1.00  0.00     0.005 A 
ATOM     11  C   UNL     1      -4.677   1.745  -0.181  1.00  0.00     0.052 A 
ATOM     12  C   UNL     1      -5.503  -0.087   1.151  1.00  0.00     0.002 A 
ATOM     13  C   UNL     1      -4.731   3.124  -0.580  1.00  0.00     0.099 C 
ATOM     14  C   UNL     1      -5.562   1.256   0.768  1.00  0.00     0.019 A 
ATOM     15  N   UNL     1      -4.776   4.232  -0.921  1.00  0.00    -0.192 NA
ENDBRANCH   7   8
ENDBRANCH   6   7
BRANCH   6  16
ATOM     16  C   UNL     1      -0.698  -2.560  -0.301  1.00  0.00     0.113 CG0
ATOM     17  G   UNL     1       0.782  -2.368  -0.292  1.00  0.00     0.000 G0
ENDBRANCH   6  16
ENDBRANCH   5   6
ENDBRANCH   1   5
BRANCH   1  18
ATOM     18  C   UNL     1       1.516   0.547  -0.709  1.00  0.00     0.177 C 
BRANCH  18  19
ATOM     19  N   UNL     1       2.850   0.725  -0.181  1.00  0.00    -0.267 N 
ATOM     20  N   UNL     1       3.196   1.822   0.504  1.00  0.00    -0.178 NA
ATOM     21  C   UNL     1       3.928  -0.057  -0.236  1.00  0.00     0.036 A 
ATOM     22  C   UNL     1       4.464   1.760   0.886  1.00  0.00     0.060 A 
ATOM     23  C   UNL     1       4.988   0.558   0.431  1.00  0.00     0.048 A 
ATOM     24  C   UNL     1       3.977  -1.379  -0.909  1.00  0.00     0.066 C 
ATOM     25  C   UNL     1       5.223   2.795   1.674  1.00  0.00     0.069 C 
ENDBRANCH  18  19
ENDBRANCH   1  18
TORSDOF 4
