REMARK SMILES O=S(=O)(NCCN1CC2CN(Cc3ccc(F)cc3)CC(C1)O2)c1ccc(F)cc1
REMARK SMILES IDX 22 1 7 2 6 3 5 4 4 5 2 7 1 8 3 9 24 10 25 11 30 12 26 13
REMARK SMILES IDX 29 14 27 15 28 16 8 17 21 19 23 21 9 22 10 24 11 25 12 26
REMARK SMILES IDX 13 27 14 28 19 29 15 30 18 31 16 32 17 33 20 34
REMARK H PARENT 4 6
REMARK Flexibility Score:  254.800
ROOT
ATOM      1  C   UNL     1       0.886   1.271  -0.041  1.00  0.00     0.118 C 
ENDROOT
BRANCH   1   2
ATOM      2  N   UNL     1      -0.462   0.929   0.290  1.00  0.00    -0.297 NA
BRANCH   2   3
ATOM      3  C   UNL     1      -1.423   1.615  -0.508  1.00  0.00     0.101 C 
BRANCH   3   4
ATOM      4  C   UNL     1      -2.761   1.637   0.187  1.00  0.00     0.114 C 
BRANCH   4   5
ATOM      5  N   UNL     1      -3.758   2.334  -0.613  1.00  0.00    -0.210 NA
ATOM      6  H   UNL     1      -3.486   3.355  -0.700  1.00  0.00     0.141 HD
BRANCH   5   7
ATOM      7  S   UNL     1      -5.270   2.311   0.262  1.00  0.00     0.240 S 
ATOM      8  O   UNL     1      -5.028   2.916   1.618  1.00  0.00    -0.207 OA
ATOM      9  O   UNL     1      -6.296   3.135  -0.425  1.00  0.00    -0.207 OA
BRANCH   7  10
ATOM     10  C   UNL     1      -5.765   0.639   0.477  1.00  0.00     0.082 A 
ATOM     11  C   UNL     1      -5.389  -0.098   1.577  1.00  0.00     0.025 A 
ATOM     12  C   UNL     1      -6.561   0.097  -0.536  1.00  0.00     0.025 A 
ATOM     13  C   UNL     1      -5.830  -1.414   1.652  1.00  0.00     0.040 A 
ATOM     14  C   UNL     1      -7.000  -1.213  -0.463  1.00  0.00     0.040 A 
ATOM     15  C   UNL     1      -6.621  -1.954   0.646  1.00  0.00     0.123 A 
ATOM     16  F   UNL     1      -7.048  -3.246   0.738  1.00  0.00    -0.207 F 
ENDBRANCH   7  10
ENDBRANCH   5   7
ENDBRANCH   4   5
ENDBRANCH   3   4
ENDBRANCH   2   3
BRANCH   2  17
ATOM     17  C   UNL     1      -0.700  -0.473   0.395  1.00  0.00     0.118 CG0
ATOM     18  G   UNL     1       0.405  -1.238  -0.354  1.00  0.00     0.000 G0
ENDBRANCH   2  17
ENDBRANCH   1   2
BRANCH   1  19
ATOM     19  C   UNL     1       1.377   0.553  -1.257  1.00  0.00     0.146 CG1
ATOM     20  G   UNL     1       2.790   0.002  -0.994  1.00  0.00     0.000 G1
BRANCH  19  21
ATOM     21  O   UNL     1       0.633  -0.601  -1.563  1.00  0.00    -0.370 OA
BRANCH  21  22
ATOM     22  C   UNL     1       0.405  -1.238  -0.354  1.00  0.00     0.146 CG0
ATOM     23  G   UNL     1      -0.700  -0.473   0.395  1.00  0.00     0.000 G0
BRANCH  22  24
ATOM     24  C   UNL     1       1.598  -1.521   0.474  1.00  0.00     0.118 C 
BRANCH  24  25
ATOM     25  N   UNL     1       2.782  -0.774   0.199  1.00  0.00    -0.294 NA
BRANCH  25  26
ATOM     26  C   UNL     1       3.920  -1.666   0.269  1.00  0.00     0.120 C 
BRANCH  26  27
ATOM     27  C   UNL     1       5.214  -1.022  -0.001  1.00  0.00    -0.034 A 
ATOM     28  C   UNL     1       5.949  -0.452   1.044  1.00  0.00     0.008 A 
ATOM     29  C   UNL     1       5.761  -0.947  -1.273  1.00  0.00     0.008 A 
ATOM     30  C   UNL     1       7.162   0.149   0.771  1.00  0.00     0.039 A 
ATOM     31  C   UNL     1       6.977  -0.341  -1.522  1.00  0.00     0.039 A 
ATOM     32  C   UNL     1       7.703   0.222  -0.493  1.00  0.00     0.123 A 
ATOM     33  F   UNL     1       8.876   0.799  -0.785  1.00  0.00    -0.207 F 
ENDBRANCH  26  27
ENDBRANCH  25  26
BRANCH  25  34
ATOM     34  C   UNL     1       2.790   0.002  -0.994  1.00  0.00     0.118 CG1
ATOM     35  G   UNL     1       1.377   0.553  -1.257  1.00  0.00     0.000 G1
ENDBRANCH  25  34
ENDBRANCH  24  25
ENDBRANCH  22  24
ENDBRANCH  21  22
ENDBRANCH  19  21
ENDBRANCH   1  19
TORSDOF 7
