REMARK SMILES COc1cc(SC)ccc1C(=O)N1CC(C)OC(C)C1
REMARK SMILES IDX 20 1 13 2 11 3 12 4 10 5 5 6 4 7 8 8 3 9 9 10 6 11 7 12 2 13
REMARK SMILES IDX 1 14 14 15 18 17 19 18 17 19 15 20 16 21
REMARK H PARENT
REMARK Flexibility Score:   21.900
ROOT
ATOM      1  C   UNL     1      -1.323   0.988   0.479  1.00  0.00     0.151 C 
ENDROOT
BRANCH   1   2
ATOM      2  N   UNL     1      -1.400   0.356  -0.824  1.00  0.00    -0.333 N 
ATOM      3  C   UNL     1      -0.229  -0.040  -1.534  1.00  0.00     0.257 C 
ATOM      4  O   UNL     1      -0.378  -0.582  -2.660  1.00  0.00    -0.269 OA
BRANCH   3   5
ATOM      5  C   UNL     1       1.068   0.204  -0.922  1.00  0.00     0.082 A 
ATOM      6  C   UNL     1       3.528   0.740   0.204  1.00  0.00     0.011 A 
ATOM      7  C   UNL     1       2.894  -0.459   0.457  1.00  0.00     0.062 A 
ATOM      8  C   UNL     1       2.929   1.679  -0.617  1.00  0.00     0.016 A 
ATOM      9  C   UNL     1       1.663  -0.754  -0.093  1.00  0.00     0.132 A 
ATOM     10  C   UNL     1       1.681   1.411  -1.190  1.00  0.00     0.019 A 
BRANCH   6  11
ATOM     11  S   UNL     1       5.126   1.115   0.921  1.00  0.00    -0.129 SA
ATOM     12  C   UNL     1       6.448   0.553  -0.183  1.00  0.00     0.091 C 
ENDBRANCH   6  11
BRANCH   9  13
ATOM     13  O   UNL     1       0.991  -1.947   0.136  1.00  0.00    -0.496 OA
ATOM     14  C   UNL     1       1.622  -2.894   0.980  1.00  0.00     0.278 C 
ENDBRANCH   9  13
ENDBRANCH   3   5
BRANCH   2  15
ATOM     15  C   UNL     1      -2.716   0.141  -1.379  1.00  0.00     0.151 CG0
ATOM     16  G   UNL     1      -3.703  -0.297  -0.320  1.00  0.00     0.000 G0
ENDBRANCH   2  15
ENDBRANCH   1   2
BRANCH   1  17
ATOM     17  C   UNL     1      -2.417   0.506   1.401  1.00  0.00     0.135 C 
ATOM     18  C   UNL     1      -3.381   1.634   1.659  1.00  0.00     0.040 C 
BRANCH  17  19
ATOM     19  O   UNL     1      -3.092  -0.593   0.878  1.00  0.00    -0.372 OA
BRANCH  19  20
ATOM     20  C   UNL     1      -3.703  -0.297  -0.320  1.00  0.00     0.135 CG0
ATOM     21  C   UNL     1      -4.403  -1.567  -0.798  1.00  0.00     0.040 C 
ATOM     22  G   UNL     1      -2.716   0.141  -1.379  1.00  0.00     0.000 G0
ENDBRANCH  19  20
ENDBRANCH  17  19
ENDBRANCH   1  17
TORSDOF 3
