REMARK SMILES COc1cccc(OC[C@H]2CN(Cc3ccc(Cl)cc3)CCO2)c1OC
REMARK SMILES IDX 10 1 11 2 12 3 13 4 14 5 17 6 16 7 19 8 15 9 20 10 18 11
REMARK SMILES IDX 21 12 23 14 22 15 9 17 8 18 7 19 24 20 6 21 3 22 5 23 4 24
REMARK SMILES IDX 25 25 26 26 2 27 1 28
REMARK H PARENT
REMARK Flexibility Score:   79.900
ROOT
ATOM      1  C   UNL     1      -0.395  -0.296  -0.345  1.00  0.00     0.170 C 
ENDROOT
BRANCH   1   2
ATOM      2  C   UNL     1      -1.518  -1.278  -0.579  1.00  0.00     0.120 C 
BRANCH   2   3
ATOM      3  N   UNL     1      -2.728  -0.774  -0.016  1.00  0.00    -0.294 NA
BRANCH   3   4
ATOM      4  C   UNL     1      -3.856  -1.121  -0.821  1.00  0.00     0.120 C 
BRANCH   4   5
ATOM      5  C   UNL     1      -5.157  -0.634  -0.307  1.00  0.00    -0.034 A 
ATOM      6  C   UNL     1      -7.577   0.341   0.611  1.00  0.00     0.041 A 
ATOM      7  C   UNL     1      -6.815   1.120  -0.259  1.00  0.00     0.021 A 
ATOM      8  C   UNL     1      -7.128  -0.916   1.016  1.00  0.00     0.021 A 
ATOM      9  C   UNL     1      -5.600   0.621  -0.714  1.00  0.00     0.006 A 
ATOM     10  C   UNL     1      -5.912  -1.411   0.558  1.00  0.00     0.006 A 
ATOM     11  Cl  UNL     1      -9.125   0.960   1.201  1.00  0.00    -0.084 Cl
ENDBRANCH   4   5
ENDBRANCH   3   4
BRANCH   3  12
ATOM     12  C   UNL     1      -2.646   0.651   0.246  1.00  0.00     0.113 CG0
ATOM     13  G   UNL     1      -1.502   0.955   1.215  1.00  0.00     0.000 G0
ENDBRANCH   3  12
ENDBRANCH   2   3
ENDBRANCH   1   2
BRANCH   1  14
ATOM     14  O   UNL     1      -0.442   0.077   1.003  1.00  0.00    -0.372 OA
BRANCH  14  15
ATOM     15  C   UNL     1      -1.502   0.955   1.215  1.00  0.00     0.176 CG0
ATOM     16  G   UNL     1      -2.646   0.651   0.246  1.00  0.00     0.000 G0
ENDBRANCH  14  15
ENDBRANCH   1  14
BRANCH   1  17
ATOM     17  C   UNL     1       0.962  -0.931  -0.579  1.00  0.00     0.263 C 
BRANCH  17  18
ATOM     18  O   UNL     1       1.958   0.027  -0.276  1.00  0.00    -0.487 OA
BRANCH  18  19
ATOM     19  C   UNL     1       3.313  -0.264  -0.397  1.00  0.00     0.165 A 
ATOM     20  C   UNL     1       4.233   0.713  -0.086  1.00  0.00     0.203 A 
ATOM     21  C   UNL     1       3.647  -1.525  -0.823  1.00  0.00     0.051 A 
ATOM     22  C   UNL     1       5.561   0.391  -0.216  1.00  0.00     0.164 A 
ATOM     23  C   UNL     1       4.996  -1.851  -0.955  1.00  0.00     0.008 A 
ATOM     24  C   UNL     1       5.932  -0.877  -0.646  1.00  0.00     0.051 A 
BRANCH  20  25
ATOM     25  O   UNL     1       3.901   1.981   0.343  1.00  0.00    -0.490 OA
ATOM     26  C   UNL     1       3.744   2.276   1.709  1.00  0.00     0.278 C 
ENDBRANCH  20  25
BRANCH  22  27
ATOM     27  O   UNL     1       6.532   1.358   0.090  1.00  0.00    -0.493 OA
ATOM     28  C   UNL     1       7.905   1.106  -0.018  1.00  0.00     0.278 C 
ENDBRANCH  22  27
ENDBRANCH  18  19
ENDBRANCH  17  18
ENDBRANCH   1  17
TORSDOF 7
