REMARK SMILES O=C(Nc1ccc(OC(F)(F)F)cc1)N1CCC2(CC1)CN(C(=O)c1c(F)cccc1F)CCO2
REMARK SMILES IDX 17 1 18 2 21 3 22 4 23 5 24 6 25 7 26 8 28 9 31 10 29 11
REMARK SMILES IDX 30 12 27 13 32 14 33 15 35 17 34 18 19 20 16 22 15 23 2 24
REMARK SMILES IDX 1 25 3 26 20 28 4 30 5 31 14 32 6 33 13 34 7 35 8 36 9 37
REMARK SMILES IDX 10 38 11 39 12 40
REMARK H PARENT 3 27
REMARK Flexibility Score:  140.800
ROOT
ATOM      1  C   UNL     1      -0.382  -0.963   1.200  1.00  0.00     0.059 C 
ENDROOT
BRANCH   1   2
ATOM      2  C   UNL     1      -1.365  -0.988   0.047  1.00  0.00     0.089 C 
BRANCH   2   3
ATOM      3  C   UNL     1      -2.217   0.232   0.133  1.00  0.00     0.155 C 
BRANCH   3   4
ATOM      4  N   UNL     1      -3.643   0.028   0.180  1.00  0.00    -0.333 N 
BRANCH   4   5
ATOM      5  C   UNL     1      -4.478   1.124  -0.182  1.00  0.00     0.260 C 
ATOM      6  O   UNL     1      -3.943   2.200  -0.524  1.00  0.00    -0.269 OA
BRANCH   5   7
ATOM      7  C   UNL     1      -5.928   1.062  -0.175  1.00  0.00     0.111 A 
ATOM      8  C   UNL     1      -6.593   1.832   0.775  1.00  0.00     0.138 A 
ATOM      9  C   UNL     1      -7.969   1.798   0.821  1.00  0.00     0.040 A 
ATOM     10  C   UNL     1      -6.667   0.280  -1.056  1.00  0.00     0.138 A 
ATOM     11  C   UNL     1      -8.684   1.019  -0.056  1.00  0.00     0.006 A 
ATOM     12  C   UNL     1      -8.062   0.252  -1.002  1.00  0.00     0.040 A 
ATOM     13  F   UNL     1      -5.906   2.597   1.636  1.00  0.00    -0.206 F 
ATOM     14  F   UNL     1      -6.008  -0.472  -1.995  1.00  0.00    -0.206 F 
ENDBRANCH   5   7
ENDBRANCH   4   5
BRANCH   4  15
ATOM     15  C   UNL     1      -4.168  -1.253   0.580  1.00  0.00     0.148 CG0
ATOM     16  G   UNL     1      -3.323  -2.260  -0.224  1.00  0.00     0.000 G0
ENDBRANCH   4  15
ENDBRANCH   3   4
ENDBRANCH   2   3
BRANCH   2  17
ATOM     17  O   UNL     1      -2.023  -2.182   0.163  1.00  0.00    -0.371 OA
BRANCH  17  18
ATOM     18  C   UNL     1      -3.323  -2.260  -0.224  1.00  0.00     0.182 CG0
ATOM     19  G   UNL     1      -4.168  -1.253   0.580  1.00  0.00     0.000 G0
ENDBRANCH  17  18
ENDBRANCH   2  17
BRANCH   2  20
ATOM     20  C   UNL     1      -0.628  -1.029  -1.282  1.00  0.00     0.059 CG1
ATOM     21  G   UNL     1       0.391   0.073  -1.384  1.00  0.00     0.000 G1
ENDBRANCH   2  20
ENDBRANCH   1   2
BRANCH   1  22
ATOM     22  C   UNL     1       0.713   0.014   1.107  1.00  0.00     0.124 C 
BRANCH  22  23
ATOM     23  N   UNL     1       1.276   0.026  -0.225  1.00  0.00    -0.324 N 
ATOM     24  C   UNL     1       2.681   0.005  -0.485  1.00  0.00     0.321 C 
ATOM     25  O   UNL     1       3.124   0.015  -1.684  1.00  0.00    -0.248 OA
ATOM     26  N   UNL     1       3.667  -0.028   0.528  1.00  0.00    -0.308 N 
ATOM     27  H   UNL     1       3.418  -0.038   1.526  1.00  0.00     0.171 HD
BRANCH  23  28
ATOM     28  C   UNL     1       0.391   0.073  -1.384  1.00  0.00     0.124 CG1
ATOM     29  G   UNL     1      -0.628  -1.029  -1.282  1.00  0.00     0.000 G1
ENDBRANCH  23  28
BRANCH  26  30
ATOM     30  C   UNL     1       5.065  -0.048   0.215  1.00  0.00     0.043 A 
ATOM     31  C   UNL     1       5.724  -1.248   0.042  1.00  0.00     0.030 A 
ATOM     32  C   UNL     1       5.695   1.181   0.093  1.00  0.00     0.030 A 
ATOM     33  C   UNL     1       7.063  -1.212  -0.265  1.00  0.00     0.049 A 
ATOM     34  C   UNL     1       7.060   1.214  -0.220  1.00  0.00     0.049 A 
ATOM     35  C   UNL     1       7.725   0.014  -0.394  1.00  0.00     0.129 A 
BRANCH  35  36
ATOM     36  O   UNL     1       9.073  -0.063  -0.705  1.00  0.00    -0.406 OA
BRANCH  36  37
ATOM     37  C   UNL     1       9.973  -0.118   0.404  1.00  0.00     0.573 C 
ATOM     38  F   UNL     1       9.656  -1.256   1.150  1.00  0.00    -0.132 F 
ATOM     39  F   UNL     1       9.714   1.002   1.177  1.00  0.00    -0.132 F 
ATOM     40  F   UNL     1      11.283  -0.164   0.000  1.00  0.00    -0.132 F 
ENDBRANCH  36  37
ENDBRANCH  35  36
ENDBRANCH  26  30
ENDBRANCH  22  23
ENDBRANCH   1  22
TORSDOF 5
