REMARK SMILES COCC(=O)N1CCC(Oc2ccc(C(=O)N3C[C@@H](C)O[C@@H](C)C3)cc2)CC1
REMARK SMILES IDX 14 1 13 2 25 3 12 4 26 5 11 6 15 7 16 8 17 9 24 10 18 12
REMARK SMILES IDX 19 13 20 14 21 15 22 16 23 17 10 19 9 20 8 21 27 23 28 24
REMARK SMILES IDX 6 25 4 26 5 27 7 28 3 30 2 31 1 32
REMARK H PARENT
REMARK Flexibility Score:   85.800
ROOT
ATOM      1  C   UNL     1      -2.257  -0.562  -1.227  1.00  0.00     0.040 A 
ATOM      2  C   UNL     1      -1.502  -1.691  -1.058  1.00  0.00     0.017 A 
ATOM      3  C   UNL     1      -1.685   0.664  -0.965  1.00  0.00     0.017 A 
ATOM      4  C   UNL     1      -0.180  -1.572  -0.626  1.00  0.00     0.047 A 
ATOM      5  C   UNL     1      -0.379   0.763  -0.540  1.00  0.00     0.047 A 
ATOM      6  C   UNL     1       0.420  -0.377  -0.358  1.00  0.00     0.119 A 
ENDROOT
BRANCH   1   7
ATOM      7  C   UNL     1      -3.654  -0.604  -1.680  1.00  0.00     0.254 C 
ATOM      8  O   UNL     1      -3.820  -1.065  -2.853  1.00  0.00    -0.269 OA
BRANCH   7   9
ATOM      9  N   UNL     1      -4.724  -0.169  -0.882  1.00  0.00    -0.333 N 
BRANCH   9  10
ATOM     10  C   UNL     1      -4.581   0.363   0.465  1.00  0.00     0.151 CG0
ATOM     11  G   UNL     1      -5.668   1.409   0.607  1.00  0.00     0.000 G0
ENDBRANCH   9  10
BRANCH   9  12
ATOM     12  C   UNL     1      -6.068  -0.264  -1.458  1.00  0.00     0.151 C 
BRANCH  12  13
ATOM     13  C   UNL     1      -7.065  -0.198  -0.358  1.00  0.00     0.135 C 
ATOM     14  C   UNL     1      -7.219  -1.608   0.211  1.00  0.00     0.040 C 
BRANCH  13  15
ATOM     15  O   UNL     1      -6.881   0.758   0.598  1.00  0.00    -0.372 OA
BRANCH  15  16
ATOM     16  C   UNL     1      -5.668   1.409   0.607  1.00  0.00     0.135 CG0
ATOM     17  C   UNL     1      -5.555   2.248   1.833  1.00  0.00     0.040 C 
ATOM     18  G   UNL     1      -4.581   0.363   0.465  1.00  0.00     0.000 G0
ENDBRANCH  15  16
ENDBRANCH  13  15
ENDBRANCH  12  13
ENDBRANCH   9  12
ENDBRANCH   7   9
ENDBRANCH   1   7
BRANCH   6  19
ATOM     19  O   UNL     1       1.692  -0.168   0.063  1.00  0.00    -0.490 OA
BRANCH  19  20
ATOM     20  C   UNL     1       2.626  -1.181   0.324  1.00  0.00     0.176 C 
BRANCH  20  21
ATOM     21  C   UNL     1       3.764  -1.059  -0.653  1.00  0.00     0.067 CG1
ATOM     22  G   UNL     1       5.121  -0.899   0.048  1.00  0.00     0.000 G1
ENDBRANCH  20  21
BRANCH  20  23
ATOM     23  C   UNL     1       3.107  -0.977   1.758  1.00  0.00     0.067 C 
BRANCH  23  24
ATOM     24  C   UNL     1       3.845   0.354   1.742  1.00  0.00     0.123 C 
BRANCH  24  25
ATOM     25  N   UNL     1       5.034   0.265   0.889  1.00  0.00    -0.340 N 
ATOM     26  C   UNL     1       5.970   1.309   0.997  1.00  0.00     0.248 C 
ATOM     27  O   UNL     1       5.654   2.270   1.799  1.00  0.00    -0.272 OA
BRANCH  25  28
ATOM     28  C   UNL     1       5.121  -0.899   0.048  1.00  0.00     0.123 CG1
ATOM     29  G   UNL     1       3.764  -1.059  -0.653  1.00  0.00     0.000 G1
ENDBRANCH  25  28
BRANCH  26  30
ATOM     30  C   UNL     1       7.257   1.470   0.331  1.00  0.00     0.259 C 
BRANCH  30  31
ATOM     31  O   UNL     1       7.619   0.418  -0.478  1.00  0.00    -0.375 OA
ATOM     32  C   UNL     1       8.863   0.596  -1.095  1.00  0.00     0.195 C 
ENDBRANCH  30  31
ENDBRANCH  26  30
ENDBRANCH  24  25
ENDBRANCH  23  24
ENDBRANCH  20  23
ENDBRANCH  19  20
ENDBRANCH   6  19
TORSDOF 6
