REMARK SMILES COc1cc2c(Nc3ccc(Cl)c(Cl)c3)ncnc2cc1OC[C@H]1CN(C(=O)c2cc(F)ccc2F)CCO1
REMARK SMILES IDX 23 1 22 2 21 3 6 4 16 5 5 6 17 7 19 8 4 9 18 10 20 11 3 12
REMARK SMILES IDX 7 13 8 15 13 16 11 17 15 18 10 19 9 20 14 21 12 22 2 23 1 24
REMARK SMILES IDX 24 25 39 26 38 27 25 29 26 30 27 31 28 32 29 33 35 34 30 35
REMARK SMILES IDX 34 36 31 37 33 38 36 39 32 40 37 41
REMARK H PARENT 7 14
REMARK Flexibility Score:  140.900
ROOT
ATOM      1  C   UNL     1       1.455  -2.660  -0.906  1.00  0.00     0.263 C 
ENDROOT
BRANCH   1   2
ATOM      2  O   UNL     1       0.135  -2.486  -1.115  1.00  0.00    -0.487 OA
BRANCH   2   3
ATOM      3  C   UNL     1      -0.685  -1.534  -1.546  1.00  0.00     0.163 A 
ATOM      4  C   UNL     1      -3.616   1.228  -2.818  1.00  0.00     0.141 A 
ATOM      5  N   UNL     1      -3.222   2.447  -3.251  1.00  0.00    -0.219 NA
ATOM      6  C   UNL     1      -2.670   0.319  -2.402  1.00  0.00     0.047 A 
ATOM      7  C   UNL     1      -1.891   2.751  -3.268  1.00  0.00     0.224 A 
ATOM      8  C   UNL     1      -1.339   0.641  -2.426  1.00  0.00     0.080 A 
ATOM      9  C   UNL     1      -3.012  -0.936  -1.949  1.00  0.00     0.064 A 
ATOM     10  N   UNL     1      -0.961   1.865  -2.863  1.00  0.00    -0.236 NA
ATOM     11  C   UNL     1      -0.393  -0.274  -2.007  1.00  0.00     0.079 A 
ATOM     12  C   UNL     1      -2.073  -1.844  -1.531  1.00  0.00     0.161 A 
BRANCH   4  13
ATOM     13  N   UNL     1      -4.981   0.831  -2.764  1.00  0.00    -0.340 N 
ATOM     14  H   UNL     1      -5.479   0.406  -3.552  1.00  0.00     0.168 HD
BRANCH  13  15
ATOM     15  C   UNL     1      -5.683   1.046  -1.531  1.00  0.00     0.041 A 
ATOM     16  C   UNL     1      -5.738   1.806   0.775  1.00  0.00     0.061 A 
ATOM     17  C   UNL     1      -7.063   1.445   0.842  1.00  0.00     0.059 A 
ATOM     18  C   UNL     1      -5.062   1.597  -0.429  1.00  0.00     0.048 A 
ATOM     19  C   UNL     1      -7.728   0.892  -0.230  1.00  0.00     0.024 A 
ATOM     20  C   UNL     1      -7.029   0.693  -1.424  1.00  0.00     0.028 A 
ATOM     21  Cl  UNL     1      -4.910   2.512   2.163  1.00  0.00    -0.083 Cl
ATOM     22  Cl  UNL     1      -7.899   1.718   2.375  1.00  0.00    -0.083 Cl
ENDBRANCH  13  15
ENDBRANCH   4  13
BRANCH  12  23
ATOM     23  O   UNL     1      -2.417  -3.100  -1.077  1.00  0.00    -0.493 OA
ATOM     24  C   UNL     1      -3.663  -3.680  -0.952  1.00  0.00     0.278 C 
ENDBRANCH  12  23
ENDBRANCH   2   3
ENDBRANCH   1   2
BRANCH   1  25
ATOM     25  C   UNL     1       2.167  -1.871   0.135  1.00  0.00     0.175 C 
BRANCH  25  26
ATOM     26  O   UNL     1       1.625  -2.055   1.421  1.00  0.00    -0.371 OA
BRANCH  26  27
ATOM     27  C   UNL     1       2.669  -1.808   2.304  1.00  0.00     0.182 CG0
ATOM     28  G   UNL     1       3.165  -0.390   2.255  1.00  0.00     0.000 G0
ENDBRANCH  26  27
ENDBRANCH  25  26
BRANCH  25  29
ATOM     29  C   UNL     1       2.415  -0.433  -0.099  1.00  0.00     0.155 C 
BRANCH  29  30
ATOM     30  N   UNL     1       3.418  -0.014   0.898  1.00  0.00    -0.334 N 
BRANCH  30  31
ATOM     31  C   UNL     1       4.531   0.713   0.436  1.00  0.00     0.257 C 
ATOM     32  O   UNL     1       4.589   0.955  -0.807  1.00  0.00    -0.269 OA
BRANCH  31  33
ATOM     33  C   UNL     1       5.605   1.198   1.286  1.00  0.00     0.078 A 
ATOM     34  C   UNL     1       5.593   2.441   1.896  1.00  0.00     0.136 A 
ATOM     35  C   UNL     1       6.693   0.371   1.492  1.00  0.00     0.056 A 
ATOM     36  C   UNL     1       6.601   2.904   2.696  1.00  0.00     0.043 A 
ATOM     37  C   UNL     1       7.723   0.809   2.292  1.00  0.00     0.124 A 
ATOM     38  C   UNL     1       7.700   2.065   2.903  1.00  0.00     0.042 A 
ATOM     39  F   UNL     1       4.505   3.228   1.671  1.00  0.00    -0.206 F 
ATOM     40  F   UNL     1       8.768  -0.030   2.468  1.00  0.00    -0.207 F 
ENDBRANCH  31  33
ENDBRANCH  30  31
BRANCH  30  41
ATOM     41  C   UNL     1       3.165  -0.390   2.255  1.00  0.00     0.148 CG0
ATOM     42  G   UNL     1       2.669  -1.808   2.304  1.00  0.00     0.000 G0
ENDBRANCH  30  41
ENDBRANCH  29  30
ENDBRANCH  25  29
ENDBRANCH   1  25
TORSDOF 8
