REMARK SMILES Cn1cc(-c2cc(C(N)=O)nc3cc(CN4CCO[C@H](C(F)(F)F)C4)ccc23)cn1
REMARK SMILES IDX 16 1 25 2 20 3 21 4 22 5 23 6 24 7 19 8 18 9 15 11 14 12
REMARK SMILES IDX 13 13 26 14 12 15 27 16 11 17 28 18 7 19 5 20 6 21 8 22
REMARK SMILES IDX 10 23 9 24 4 27 29 28 3 29 30 30 2 31 1 32 17 33
REMARK H PARENT 9 25 9 26
REMARK Flexibility Score:   71.900
ROOT
ATOM      1  N   UNL     1      -3.317  -0.694  -0.228  1.00  0.00    -0.294 NA
ENDROOT
BRANCH   1   2
ATOM      2  C   UNL     1      -4.742  -0.834  -0.108  1.00  0.00     0.126 C 
BRANCH   2   3
ATOM      3  C   UNL     1      -5.552   0.218  -0.763  1.00  0.00     0.237 C 
BRANCH   3   4
ATOM      4  C   UNL     1      -6.545   0.862   0.216  1.00  0.00     0.415 C 
ATOM      5  F   UNL     1      -5.913   1.681   1.101  1.00  0.00    -0.168 F 
ATOM      6  F   UNL     1      -7.552   1.495  -0.489  1.00  0.00    -0.168 F 
ATOM      7  F   UNL     1      -7.109  -0.199   0.926  1.00  0.00    -0.168 F 
ENDBRANCH   3   4
BRANCH   3   8
ATOM      8  O   UNL     1      -4.927   1.207  -1.442  1.00  0.00    -0.366 OA
BRANCH   8   9
ATOM      9  C   UNL     1      -3.597   1.442  -1.139  1.00  0.00     0.176 CG0
ATOM     10  G   UNL     1      -2.903   0.096  -1.341  1.00  0.00     0.000 G0
ENDBRANCH   8   9
ENDBRANCH   3   8
ENDBRANCH   2   3
ENDBRANCH   1   2
BRANCH   1  11
ATOM     11  C   UNL     1      -2.670  -0.399   1.014  1.00  0.00     0.120 C 
BRANCH  11  12
ATOM     12  C   UNL     1      -1.204  -0.270   0.842  1.00  0.00    -0.032 A 
ATOM     13  C   UNL     1      -0.424  -1.417   0.971  1.00  0.00     0.034 A 
ATOM     14  C   UNL     1      -0.566   0.919   0.565  1.00  0.00     0.006 A 
ATOM     15  C   UNL     1       0.948  -1.371   0.827  1.00  0.00     0.072 A 
ATOM     16  C   UNL     1       0.797   0.981   0.418  1.00  0.00     0.011 A 
ATOM     17  N   UNL     1       1.715  -2.463   0.942  1.00  0.00    -0.243 NA
ATOM     18  C   UNL     1       1.556  -0.160   0.549  1.00  0.00     0.008 A 
ATOM     19  C   UNL     1       3.063  -2.462   0.804  1.00  0.00     0.129 A 
ATOM     20  C   UNL     1       2.916  -0.078   0.395  1.00  0.00    -0.003 A 
ATOM     21  C   UNL     1       3.668  -1.251   0.526  1.00  0.00     0.043 A 
BRANCH  19  22
ATOM     22  C   UNL     1       3.855  -3.692   0.940  1.00  0.00     0.267 C 
ATOM     23  O   UNL     1       5.105  -3.638   0.802  1.00  0.00    -0.268 OA
ATOM     24  N   UNL     1       3.154  -4.898   1.227  1.00  0.00    -0.364 N 
ATOM     25  H   UNL     1       3.386  -5.819   0.842  1.00  0.00     0.160 HD
ATOM     26  H   UNL     1       2.341  -4.829   1.881  1.00  0.00     0.160 HD
ENDBRANCH  19  22
BRANCH  20  27
ATOM     27  C   UNL     1       3.654   1.133   0.124  1.00  0.00     0.020 A 
ATOM     28  C   UNL     1       3.637   2.368   0.722  1.00  0.00     0.143 A 
ATOM     29  C   UNL     1       4.589   1.223  -0.909  1.00  0.00     0.117 A 
ATOM     30  N   UNL     1       4.517   3.149   0.074  1.00  0.00    -0.181 NA
ATOM     31  N   UNL     1       5.102   2.488  -0.908  1.00  0.00    -0.275 N 
ATOM     32  C   UNL     1       6.105   2.924  -1.858  1.00  0.00     0.173 C 
ENDBRANCH  20  27
ENDBRANCH  11  12
ENDBRANCH   1  11
BRANCH   1  33
ATOM     33  C   UNL     1      -2.903   0.096  -1.341  1.00  0.00     0.113 CG0
ATOM     34  G   UNL     1      -3.597   1.442  -1.139  1.00  0.00     0.000 G0
ENDBRANCH   1  33
TORSDOF 5
