REMARK SMILES CC1CN(C(=O)c2ccccc2Sc2ccccc2C#N)CC(C)O1
REMARK SMILES IDX 3 1 4 2 5 3 6 4 7 5 12 6 11 7 8 8 10 9 9 10 13 11 14 12
REMARK SMILES IDX 19 13 15 14 20 15 18 16 16 17 21 18 17 19 22 20 2 22 1 23
REMARK SMILES IDX 25 24 23 25 24 26
REMARK H PARENT
REMARK Flexibility Score:  133.900
ROOT
ATOM      1  C   UNL     1      -2.124  -0.615  -1.001  1.00  0.00     0.151 C 
ENDROOT
BRANCH   1   2
ATOM      2  N   UNL     1      -2.155  -0.773   0.443  1.00  0.00    -0.333 N 
ATOM      3  C   UNL     1      -1.145  -1.471   1.166  1.00  0.00     0.255 C 
ATOM      4  O   UNL     1      -1.172  -1.608   2.423  1.00  0.00    -0.269 OA
BRANCH   3   5
ATOM      5  C   UNL     1      -0.024  -2.059   0.440  1.00  0.00     0.053 A 
ATOM      6  C   UNL     1       1.150  -1.380   0.185  1.00  0.00     0.025 A 
ATOM      7  C   UNL     1       2.213  -1.912  -0.493  1.00  0.00     0.016 A 
ATOM      8  C   UNL     1      -0.095  -3.362  -0.036  1.00  0.00     0.015 A 
ATOM      9  C   UNL     1       2.127  -3.208  -0.960  1.00  0.00     0.001 A 
ATOM     10  C   UNL     1       0.960  -3.932  -0.725  1.00  0.00     0.001 A 
BRANCH   6  11
ATOM     11  S   UNL     1       1.272   0.296   0.783  1.00  0.00    -0.088 SA
BRANCH  11  12
ATOM     12  C   UNL     1       2.817   1.048   0.392  1.00  0.00     0.030 A 
ATOM     13  C   UNL     1       3.863   0.914   1.309  1.00  0.00     0.066 A 
ATOM     14  C   UNL     1       3.042   1.767  -0.786  1.00  0.00     0.017 A 
ATOM     15  C   UNL     1       3.673   0.181   2.535  1.00  0.00     0.100 C 
ATOM     16  C   UNL     1       5.103   1.470   1.082  1.00  0.00     0.020 A 
ATOM     17  C   UNL     1       4.297   2.324  -1.004  1.00  0.00     0.001 A 
ATOM     18  N   UNL     1       3.516  -0.411   3.501  1.00  0.00    -0.192 NA
ATOM     19  C   UNL     1       5.314   2.179  -0.086  1.00  0.00     0.001 A 
ENDBRANCH  11  12
ENDBRANCH   6  11
ENDBRANCH   3   5
BRANCH   2  20
ATOM     20  C   UNL     1      -3.277  -0.182   1.147  1.00  0.00     0.151 CG0
ATOM     21  G   UNL     1      -3.880   0.971   0.395  1.00  0.00     0.000 G0
ENDBRANCH   2  20
ENDBRANCH   1   2
BRANCH   1  22
ATOM     22  C   UNL     1      -2.240   0.844  -1.278  1.00  0.00     0.135 C 
ATOM     23  C   UNL     1      -2.551   1.121  -2.754  1.00  0.00     0.040 C 
BRANCH  22  24
ATOM     24  O   UNL     1      -3.069   1.575  -0.504  1.00  0.00    -0.372 OA
BRANCH  24  25
ATOM     25  C   UNL     1      -3.880   0.971   0.395  1.00  0.00     0.135 CG0
ATOM     26  C   UNL     1      -4.305   1.996   1.431  1.00  0.00     0.040 C 
ATOM     27  G   UNL     1      -3.277  -0.182   1.147  1.00  0.00     0.000 G0
ENDBRANCH  24  25
ENDBRANCH  22  24
ENDBRANCH   1  22
TORSDOF 3
